
     Program PWSCF v.6.4.1 starts on  3May2021 at 12:51:50 

     This program is part of the open-source Quantum ESPRESSO suite
     for quantum simulation of materials; please cite
         "P. Giannozzi et al., J. Phys.:Condens. Matter 21 395502 (2009);
         "P. Giannozzi et al., J. Phys.:Condens. Matter 29 465901 (2017);
          URL http://www.quantum-espresso.org", 
     in publications or presentations arising from this work. More details at
     http://www.quantum-espresso.org/quote

     Parallel version (MPI & OpenMP), running on     320 processor cores
     Number of MPI processes:               320
     Threads/MPI process:                     1

     MPI processes distributed on    10 nodes
     K-points division:     npool     =      10
     R & G space division:  proc/nbgrp/npool/nimage =      32
     Waiting for input...
     Reading input from standard input

     Current dimensions of program PWSCF are:
     Max number of different atomic species (ntypx) = 10
     Max number of k-points (npk) =  40000
     Max angular momentum in pseudopotentials (lmaxx) =  3

     Atomic positions and unit cell read from directory:
     ./MoS2.save/
 
     Message from routine readpp:
     file ./MoS2.save/Mo_FR.UPF not found
     Message from routine readpp:
     file ./MoS2.save/S_FR.UPF not found

     Subspace diagonalization in iterative solution of the eigenvalue problem:
     one sub-group per band group will be used
     scalapack distributed-memory algorithm (size of sub-group:  4*  4 procs)

     Message from routine setup:
     DEPRECATED: symmetry with ibrav=0, use correct ibrav instead
 
     Parallelization info
     --------------------
     sticks:   dense  smooth     PW     G-vecs:    dense   smooth      PW
     Min          12      12      5                  980      980     241
     Max          13      13      6                 1004     1004     261
     Sum         385     385    163                31921    31921    8087
 


     bravais-lattice index     =            0
     lattice parameter (alat)  =       5.9867  a.u.
     unit-cell volume          =     938.4712 (a.u.)^3
     number of atoms/cell      =            3
     number of atomic types    =            2
     number of electrons       =        26.00
     number of Kohn-Sham states=           30
     kinetic-energy cutoff     =      40.0000  Ry
     charge density cutoff     =     160.0000  Ry
     Exchange-correlation      = PBE ( 1  4  3  4 0 0)
     Non magnetic calculation with spin-orbit


     celldm(1)=   5.986676  celldm(2)=   0.000000  celldm(3)=   0.000000
     celldm(4)=   0.000000  celldm(5)=   0.000000  celldm(6)=   0.000000

     crystal axes: (cart. coord. in units of alat)
               a(1) = (   1.000000   0.000000   0.000000 )  
               a(2) = (  -0.500000   0.866025   0.000000 )  
               a(3) = (   0.000000   0.000000   5.050485 )  

     reciprocal axes: (cart. coord. in units 2 pi/alat)
               b(1) = (  1.000000  0.577350  0.000000 )  
               b(2) = (  0.000000  1.154701  0.000000 )  
               b(3) = (  0.000000  0.000000  0.198001 )  


     PseudoPot. # 1 for Mo read from file:
     ../../../pseudo/oncvpsp/Mo_FR.UPF
     MD5 check sum: 091442f9a55d305e44af61b3fb26c716
     Pseudo is Norm-conserving, Zval = 14.0
     Generated using ONCVPSP code by D. R. Hamann
     Using radial grid of 1526 points, 10 beta functions with: 
                l(1) =   0
                l(2) =   0
                l(3) =   1
                l(4) =   1
                l(5) =   1
                l(6) =   1
                l(7) =   2
                l(8) =   2
                l(9) =   2
               l(10) =   2

     PseudoPot. # 2 for S  read from file:
     ../../../pseudo/oncvpsp/S_FR.UPF
     MD5 check sum: 1ec1d62f6016a84edfc3cbeb70a0ad55
     Pseudo is Norm-conserving, Zval =  6.0
     Generated using ONCVPSP code by D. R. Hamann
     Using radial grid of 1146 points,  6 beta functions with: 
                l(1) =   0
                l(2) =   0
                l(3) =   1
                l(4) =   1
                l(5) =   1
                l(6) =   1

     atomic species   valence    mass     pseudopotential
        Mo            14.00     1.00000     Mo( 1.00)
        S              6.00     1.00000     S ( 1.00)

     12 Sym. Ops. (no inversion) found



   Cartesian axes

     site n.     atom                  positions (alat units)
         1           Mo  tau(   1) = (  -0.0000000   0.5773503   0.0000000  )
         2           S   tau(   2) = (   0.5000000   0.2886751  -0.4944526  )
         3           S   tau(   3) = (   0.5000000   0.2886751   0.4944526  )

     number of k points=    63
                       cart. coord. in units 2pi/alat
        k(    1) = (   0.0080185   0.0046295   0.0000000), wk =   0.0092593
        k(    2) = (   0.0080185   0.1970796   0.0000000), wk =   0.0185185
        k(    3) = (   0.8413518   0.4857547   0.0000000), wk =   0.0092593
        k(    4) = (   0.0080185   0.3895297   0.0000000), wk =   0.0185185
        k(    5) = (   0.6746852   0.3895297   0.0000000), wk =   0.0092593
        k(    6) = (   0.0080185   0.5819798   0.0000000), wk =   0.0185185
        k(    7) = (   0.5080185   0.2933046   0.0000000), wk =   0.0092593
        k(    8) = (   0.0080185   0.7744298   0.0000000), wk =   0.0185185
        k(    9) = (   0.3413518   0.1970796   0.0000000), wk =   0.0092593
        k(   10) = (   0.0080185   0.9668799   0.0000000), wk =   0.0185185
        k(   11) = (   0.1746852   0.1008545   0.0000000), wk =   0.0092593
        k(   12) = (   0.1746852   0.2933046   0.0000000), wk =   0.0185185
        k(   13) = (   0.8413518   0.8706549   0.0000000), wk =   0.0185185
        k(   14) = (   0.6746852   0.5819798   0.0000000), wk =   0.0185185
        k(   15) = (   0.1746852   0.4857547   0.0000000), wk =   0.0185185
        k(   16) = (   0.8413518   1.0631050   0.0000000), wk =   0.0185185
        k(   17) = (   0.5080185   0.4857547   0.0000000), wk =   0.0185185
        k(   18) = (   0.1746852   0.6782048   0.0000000), wk =   0.0185185
        k(   19) = (   0.8413518   1.2555551   0.0000000), wk =   0.0185185
        k(   20) = (   0.3413518   0.3895297   0.0000000), wk =   0.0185185
        k(   21) = (   0.3413518   0.5819798   0.0000000), wk =   0.0185185
        k(   22) = (   0.0320740   0.0185179   0.0000000), wk =   0.0092593
        k(   23) = (   0.0320740   0.2109680   0.0000000), wk =   0.0185185
        k(   24) = (   0.8654073   0.4996432   0.0000000), wk =   0.0092593
        k(   25) = (   0.0320740   0.4034181   0.0000000), wk =   0.0185185
        k(   26) = (   0.6987407   0.4034181   0.0000000), wk =   0.0092593
        k(   27) = (   0.0320740   0.5958682   0.0000000), wk =   0.0185185
        k(   28) = (   0.5320740   0.3071931   0.0000000), wk =   0.0092593
        k(   29) = (   0.0320740   0.7883183   0.0000000), wk =   0.0185185
        k(   30) = (   0.3654073   0.2109680   0.0000000), wk =   0.0092593
        k(   31) = (   0.0320740   0.9807684   0.0000000), wk =   0.0185185
        k(   32) = (   0.1987407   0.1147430   0.0000000), wk =   0.0092593
        k(   33) = (   0.1987407   0.3071931   0.0000000), wk =   0.0185185
        k(   34) = (   0.8654073   0.8845433   0.0000000), wk =   0.0185185
        k(   35) = (   0.6987407   0.5958682   0.0000000), wk =   0.0185185
        k(   36) = (   0.1987407   0.4996432   0.0000000), wk =   0.0185185
        k(   37) = (   0.8654073   1.0769934   0.0000000), wk =   0.0185185
        k(   38) = (   0.5320740   0.4996432   0.0000000), wk =   0.0185185
        k(   39) = (   0.1987407   0.6920933   0.0000000), wk =   0.0185185
        k(   40) = (   0.8654073   1.2694435   0.0000000), wk =   0.0185185
        k(   41) = (   0.3654073   0.4034181   0.0000000), wk =   0.0185185
        k(   42) = (   0.3654073   0.5958682   0.0000000), wk =   0.0185185
        k(   43) = (   0.0721665   0.0416654   0.0000000), wk =   0.0092593
        k(   44) = (   0.0721665   0.2341155   0.0000000), wk =   0.0185185
        k(   45) = (   0.9054999   0.5227906   0.0000000), wk =   0.0092593
        k(   46) = (   0.0721665   0.4265655   0.0000000), wk =   0.0185185
        k(   47) = (   0.7388332   0.4265655   0.0000000), wk =   0.0092593
        k(   48) = (   0.0721665   0.6190156   0.0000000), wk =   0.0185185
        k(   49) = (   0.5721665   0.3303405   0.0000000), wk =   0.0092593
        k(   50) = (   0.0721665   0.8114657   0.0000000), wk =   0.0185185
        k(   51) = (   0.4054999   0.2341155   0.0000000), wk =   0.0092593
        k(   52) = (   0.0721665   1.0039158   0.0000000), wk =   0.0185185
        k(   53) = (   0.2388332   0.1378904   0.0000000), wk =   0.0092593
        k(   54) = (   0.2388332   0.3303405   0.0000000), wk =   0.0185185
        k(   55) = (   0.9054999   0.9076908   0.0000000), wk =   0.0185185
        k(   56) = (   0.7388332   0.6190156   0.0000000), wk =   0.0185185
        k(   57) = (   0.2388332   0.5227906   0.0000000), wk =   0.0185185
        k(   58) = (   0.9054999   1.1001409   0.0000000), wk =   0.0185185
        k(   59) = (   0.5721665   0.5227906   0.0000000), wk =   0.0185185
        k(   60) = (   0.2388332   0.7152407   0.0000000), wk =   0.0185185
        k(   61) = (   0.9054999   1.2925910   0.0000000), wk =   0.0185185
        k(   62) = (   0.4054999   0.4265655   0.0000000), wk =   0.0185185
        k(   63) = (   0.4054999   0.6190156   0.0000000), wk =   0.0185185

     Dense  grid:    31921 G-vectors     FFT dimensions: (  25,  25, 125)

     Estimated max dynamical RAM per process >       7.83 MB

     Estimated total dynamical RAM >       2.45 GB
 ----2D----2D----2D----2D----2D----2D----2D----2D----2D----2D----2D----2D
  The code is running with the 2D cutoff
  Please refer to:
  Sohier, T., Calandra, M., & Mauri, F. (2017), 
  Density functional perturbation theory for gated two-dimensional heterostructu
 res:
  Theoretical developments and application to flexural phonons in graphene.
  Physical Review B, 96(7), 75448. https://doi.org/10.1103/PhysRevB.96.075448
 ----2D----2D----2D----2D----2D----2D----2D----2D----2D----2D----2D----2D

     The potential is recalculated from file :
     ./MoS2.save/charge-density

     Starting wfcs are   36 randomized atomic wfcs

     Band Structure Calculation
     Davidson diagonalization with overlap

     ethr =  3.85E-13,  avg # of iterations = 44.6

     total cpu time spent up to now is        5.2 secs

     End of band structure calculation

          k = 0.0080 0.0046 0.0000 (  3941 PWs)   bands (ev):

   -66.7334 -66.7334 -42.4733 -42.4733 -40.0459 -40.0459 -39.8879 -39.8879
   -20.0507 -20.0507 -18.7473 -18.7473 -11.5635 -11.5635  -8.5462  -8.5462
    -8.4810  -8.4810  -7.7418  -7.7418  -7.4278  -7.4278  -7.3431  -7.3431
    -5.9550  -5.9550  -3.1455  -3.1455  -3.0659  -3.0659

          k = 0.0080 0.1971 0.0000 (  3987 PWs)   bands (ev):

   -66.7230 -66.7230 -42.5017 -42.5015 -40.0625 -40.0624 -39.9504 -39.9500
   -19.6326 -19.6322 -18.5751 -18.5751 -11.1298 -11.1292  -9.3056  -9.3043
    -8.8839  -8.8834  -8.0838  -8.0805  -7.9689  -7.9676  -7.0105  -7.0064
    -6.2481  -6.2468  -3.6282  -3.6281  -3.3016  -3.3014

          k = 0.8414 0.4858 0.0000 (  3983 PWs)   bands (ev):

   -66.7243 -66.7243 -42.4980 -42.4980 -40.0596 -40.0596 -39.9433 -39.9433
   -19.6872 -19.6872 -18.5976 -18.5976 -11.1778 -11.1778  -9.2220  -9.2220
    -8.7879  -8.7879  -8.1349  -8.1349  -7.9030  -7.9030  -6.9939  -6.9939
    -6.1967  -6.1967  -3.5789  -3.5789  -3.3068  -3.3068

          k = 0.0080 0.3895 0.0000 (  4008 PWs)   bands (ev):

   -66.7031 -66.7031 -42.5604 -42.5597 -40.1491 -40.1485 -40.0058 -40.0054
   -18.6979 -18.6963 -18.1976 -18.1975 -11.2017 -11.2010 -10.1582 -10.1573
    -9.8247  -9.8244  -8.7744  -8.7737  -7.5830  -7.5821  -7.2424  -7.2270
    -6.8998  -6.8823  -3.6948  -3.6815  -3.5448  -3.5357

          k = 0.6747 0.3895 0.0000 (  4010 PWs)   bands (ev):

   -66.7044 -66.7044 -42.5560 -42.5560 -40.1413 -40.1413 -40.0041 -40.0041
   -18.7668 -18.7668 -18.2251 -18.2251 -11.1442 -11.1442 -10.0773 -10.0773
    -9.8180  -9.8180  -8.7261  -8.7261  -7.5477  -7.5477  -7.2822  -7.2822
    -6.8918  -6.8918  -3.6817  -3.6817  -3.5756  -3.5756

          k = 0.0080 0.5820 0.0000 (  4004 PWs)   bands (ev):

   -66.6935 -66.6935 -42.5904 -42.5895 -40.2064 -40.2053 -40.0122 -40.0120
   -18.1465 -18.1441 -17.9867 -17.9866 -11.7265 -11.7252 -10.7478 -10.7472
   -10.0057 -10.0047  -9.0795  -9.0786  -7.8260  -7.8252  -6.8808  -6.8564
    -6.5561  -6.5287  -3.6367  -3.6319  -3.1218  -3.1109

          k = 0.5080 0.2933 0.0000 (  3988 PWs)   bands (ev):

   -66.6935 -66.6935 -42.5899 -42.5899 -40.2057 -40.2057 -40.0120 -40.0120
   -18.1468 -18.1468 -17.9873 -17.9873 -11.7256 -11.7256 -10.7456 -10.7456
   -10.0049 -10.0049  -9.0782  -9.0782  -7.8254  -7.8254  -6.8617  -6.8617
    -6.5480  -6.5480  -3.6350  -3.6350  -3.1179  -3.1179

          k = 0.0080 0.7744 0.0000 (  4010 PWs)   bands (ev):

   -66.7039 -66.7039 -42.5577 -42.5571 -40.1441 -40.1436 -40.0049 -40.0044
   -18.7438 -18.7424 -18.2157 -18.2156 -11.1631 -11.1623 -10.1049 -10.1041
    -9.8199  -9.8195  -8.7446  -8.7439  -7.5585  -7.5578  -7.2755  -7.2621
    -6.8990  -6.8834  -3.6942  -3.6780  -3.5683  -3.5563

          k = 0.3414 0.1971 0.0000 (  4000 PWs)   bands (ev):

   -66.7026 -66.7026 -42.5613 -42.5613 -40.1513 -40.1513 -40.0059 -40.0059
   -18.6749 -18.6749 -18.1888 -18.1888 -11.2214 -11.2214 -10.1836 -10.1836
    -9.8278  -9.8278  -8.7860  -8.7860  -7.5963  -7.5963  -7.2130  -7.2130
    -6.8923  -6.8923  -3.6868  -3.6868  -3.5307  -3.5307

          k = 0.0080 0.9669 0.0000 (  3987 PWs)   bands (ev):

   -66.7239 -66.7239 -42.4993 -42.4991 -40.0606 -40.0604 -39.9459 -39.9455
   -19.6690 -19.6686 -18.5901 -18.5901 -11.1614 -11.1609  -9.2511  -9.2497
    -8.8202  -8.8198  -8.1188  -8.1154  -7.9279  -7.9266  -6.9985  -6.9944
    -6.2140  -6.2128  -3.5969  -3.5964  -3.3075  -3.3029

          k = 0.1747 0.1009 0.0000 (  3985 PWs)   bands (ev):

   -66.7226 -66.7226 -42.5028 -42.5028 -40.0635 -40.0635 -39.9523 -39.9523
   -19.6144 -19.6144 -18.5677 -18.5677 -11.1145 -11.1145  -9.3311  -9.3311
    -8.9153  -8.9153  -8.0656  -8.0656  -7.9841  -7.9841  -7.0181  -7.0181
    -6.2648  -6.2648  -3.6419  -3.6419  -3.3041  -3.3041

          k = 0.1747 0.2933 0.0000 (  4004 PWs)   bands (ev):

   -66.7076 -66.7076 -42.5497 -42.5413 -40.1138 -40.1092 -40.0166 -40.0092
   -18.9434 -18.9262 -18.2875 -18.2862 -10.8869 -10.8634  -9.7381  -9.7285
    -9.6803  -9.6503  -9.1615  -9.1331  -7.9263  -7.8493  -7.0061  -6.9720
    -6.7539  -6.6778  -4.0185  -3.9464  -3.4137  -3.3960

          k = 0.8414 0.8707 0.0000 (  4000 PWs)   bands (ev):

   -66.7085 -66.7085 -42.5469 -42.5391 -40.1099 -40.1061 -40.0141 -40.0066
   -18.9849 -18.9688 -18.3049 -18.3037 -10.8780 -10.8549  -9.7433  -9.7338
    -9.6213  -9.5920  -9.1290  -9.1008  -7.9039  -7.8284  -6.9895  -6.9546
    -6.7446  -6.6724  -4.0150  -3.9455  -3.4229  -3.4052

          k = 0.6747 0.5820 0.0000 (  3998 PWs)   bands (ev):

   -66.7094 -66.7094 -42.5441 -42.5367 -40.1058 -40.1029 -40.0115 -40.0039
   -19.0272 -19.0122 -18.3226 -18.3215 -10.8701 -10.8474  -9.7446  -9.7359
    -9.5593  -9.5295  -9.0982  -9.0698  -7.8897  -7.8160  -6.9698  -6.9342
    -6.7308  -6.6628  -4.0100  -3.9433  -3.4304  -3.4131

          k = 0.1747 0.4858 0.0000 (  4036 PWs)   bands (ev):

   -66.6931 -66.6931 -42.5969 -42.5801 -40.1940 -40.1701 -40.0441 -40.0437
   -18.1629 -18.1210 -17.9591 -17.9563 -11.2453 -11.2318 -10.8862 -10.8766
    -9.7537  -9.7497  -9.1463  -9.1279  -8.3886  -8.3259  -7.6736  -7.6639
    -6.4365  -6.3263  -3.7030  -3.6730  -3.0997  -2.9768

          k = 0.8414 1.0631 0.0000 (  4034 PWs)   bands (ev):

   -66.6935 -66.6935 -42.5953 -42.5797 -40.1939 -40.1725 -40.0395 -40.0390
   -18.1850 -18.1462 -17.9718 -17.9692 -11.2972 -11.2846 -10.8396 -10.8302
    -9.7837  -9.7787  -9.1470  -9.1298  -8.2239  -8.1579  -7.6679  -7.6568
    -6.4568  -6.3484  -3.6831  -3.6541  -3.1420  -3.0261

          k = 0.5080 0.4858 0.0000 (  4032 PWs)   bands (ev):

   -66.6939 -66.6939 -42.5939 -42.5781 -40.1898 -40.1681 -40.0409 -40.0404
   -18.2139 -18.1749 -17.9820 -17.9794 -11.2483 -11.2388 -10.8068 -10.7967
    -9.7390  -9.7365  -9.1640  -9.1462  -8.3042  -8.2391  -7.6235  -7.6118
    -6.4873  -6.3797  -3.6839  -3.6643  -3.1667  -3.0598

          k = 0.1747 0.6782 0.0000 (  4032 PWs)   bands (ev):

   -66.6935 -66.6935 -42.5954 -42.5790 -40.1914 -40.1681 -40.0433 -40.0432
   -18.1886 -18.1476 -17.9698 -17.9671 -11.2320 -11.2209 -10.8498 -10.8398
    -9.7329  -9.7303  -9.1586  -9.1402  -8.3858  -8.3226  -7.6423  -7.6318
    -6.4638  -6.3548  -3.6948  -3.6704  -3.1321  -3.0167

          k = 0.8414 1.2556 0.0000 (  4030 PWs)   bands (ev):

   -66.6939 -66.6939 -42.5938 -42.5785 -40.1912 -40.1703 -40.0390 -40.0383
   -18.2114 -18.1735 -17.9827 -17.9801 -11.2804 -11.2700 -10.8032 -10.7934
    -9.7644  -9.7608  -9.1568  -9.1396  -8.2244  -8.1580  -7.6381  -7.6262
    -6.4834  -6.3760  -3.6787  -3.6568  -3.1706  -3.0634

          k = 0.3414 0.3895 0.0000 (  4032 PWs)   bands (ev):

   -66.6931 -66.6931 -42.5967 -42.5805 -40.1952 -40.1722 -40.0418 -40.0418
   -18.1618 -18.1211 -17.9604 -17.9577 -11.2785 -11.2644 -10.8797 -10.8703
    -9.7789  -9.7736  -9.1418  -9.1240  -8.3064  -8.2423  -7.6846  -7.6746
    -6.4336  -6.3237  -3.6962  -3.6639  -3.1059  -2.9828

          k = 0.3414 0.5820 0.0000 (  4054 PWs)   bands (ev):

   -66.6885 -66.6885 -42.6122 -42.5880 -40.2056 -40.1559 -40.0878 -40.0721
   -17.9044 -17.8406 -17.8247 -17.8216 -11.3677 -11.3599 -10.5600 -10.5243
   -10.0310  -9.9733  -9.4812  -9.4635  -8.8406  -8.7906  -8.1114  -8.0884
    -6.0051  -5.8575  -4.1894  -4.1868  -2.8629  -2.8312

          k = 0.0321 0.0185 0.0000 (  3943 PWs)   bands (ev):

   -66.7330 -66.7330 -42.4743 -42.4743 -40.0463 -40.0463 -39.8904 -39.8904
   -20.0361 -20.0361 -18.7412 -18.7412 -11.5465 -11.5465  -8.5647  -8.5647
    -8.4813  -8.4813  -7.8475  -7.8475  -7.4246  -7.4246  -7.2863  -7.2863
    -5.9608  -5.9608  -3.1520  -3.1520  -3.0591  -3.0591

          k = 0.0321 0.2110 0.0000 (  3982 PWs)   bands (ev):

   -66.7214 -66.7214 -42.5066 -42.5055 -40.0665 -40.0659 -39.9592 -39.9571
   -19.5666 -19.5647 -18.5477 -18.5476 -11.0754 -11.0726  -9.3984  -9.3942
    -8.9818  -8.9795  -8.0968  -8.0949  -8.0205  -8.0053  -7.0066  -6.9918
    -6.3134  -6.3068  -3.6812  -3.6781  -3.3381  -3.3322

          k = 0.8654 0.4996 0.0000 (  3977 PWs)   bands (ev):

   -66.7267 -66.7267 -42.4914 -42.4914 -40.0550 -40.0550 -39.9299 -39.9299
   -19.7858 -19.7858 -18.6382 -18.6382 -11.2726 -11.2726  -9.0579  -9.0579
    -8.5985  -8.5985  -8.2336  -8.2336  -7.7809  -7.7809  -6.9850  -6.9850
    -6.1128  -6.1128  -3.4630  -3.4630  -3.3117  -3.3117

          k = 0.0321 0.4034 0.0000 (  3995 PWs)   bands (ev):

   -66.7017 -66.7017 -42.5657 -42.5628 -40.1573 -40.1546 -40.0087 -40.0073
   -18.6261 -18.6196 -18.1680 -18.1676 -11.2534 -11.2515 -10.2402 -10.2370
    -9.8274  -9.8266  -8.8507  -8.8476  -7.5941  -7.5911  -7.2859  -7.2345
    -6.8692  -6.8088  -3.7294  -3.6963  -3.4877  -3.4719

          k = 0.6987 0.4034 0.0000 (  4002 PWs)   bands (ev):

   -66.7072 -66.7072 -42.5476 -42.5476 -40.1259 -40.1259 -40.0004 -40.0004
   -18.9089 -18.9089 -18.2814 -18.2814 -11.0404 -11.0404  -9.9093  -9.9093
    -9.8046  -9.8046  -8.6274  -8.6274  -7.4775  -7.4775  -7.3845  -7.3845
    -6.8551  -6.8551  -3.6865  -3.6865  -3.6094  -3.6094

          k = 0.0321 0.5959 0.0000 (  4002 PWs)   bands (ev):

   -66.6935 -66.6935 -42.5917 -42.5880 -40.2070 -40.2026 -40.0138 -40.0130
   -18.1511 -18.1417 -17.9861 -17.9855 -11.7081 -11.7030 -10.7537 -10.7515
    -9.9985  -9.9949  -9.0823  -9.0789  -7.8211  -7.8182  -7.0043  -6.9392
    -6.5377  -6.4608  -3.6400  -3.6211  -3.1394  -3.0968

          k = 0.5321 0.3072 0.0000 (  3994 PWs)   bands (ev):

   -66.6939 -66.6939 -42.5887 -42.5887 -40.2034 -40.2034 -40.0119 -40.0119
   -18.1707 -18.1707 -17.9961 -17.9961 -11.7018 -11.7018 -10.7219 -10.7219
    -9.9924  -9.9924  -9.0666  -9.0666  -7.8169  -7.8169  -6.8756  -6.8756
    -6.5752  -6.5752  -3.6411  -3.6411  -3.1437  -3.1437

          k = 0.0321 0.7883 0.0000 (  4010 PWs)   bands (ev):

   -66.7051 -66.7051 -42.5550 -42.5524 -40.1371 -40.1352 -40.0051 -40.0033
   -18.8086 -18.8031 -18.2402 -18.2398 -11.1028 -11.0988 -10.0251 -10.0215
    -9.8089  -9.8072  -8.7413  -8.7386  -7.4960  -7.4913  -7.3803  -7.3508
    -6.8802  -6.8353  -3.7530  -3.7057  -3.5630  -3.5312

          k = 0.3654 0.2110 0.0000 (  4002 PWs)   bands (ev):

   -66.7002 -66.7002 -42.5688 -42.5688 -40.1654 -40.1654 -40.0081 -40.0081
   -18.5438 -18.5438 -18.1377 -18.1377 -11.3397 -11.3397 -10.3307 -10.3307
    -9.8509  -9.8509  -8.8663  -8.8663  -7.6615  -7.6615  -7.1181  -7.1181
    -6.8605  -6.8605  -3.6892  -3.6892  -3.4523  -3.4523

          k = 0.0321 0.9808 0.0000 (  3972 PWs)   bands (ev):

   -66.7249 -66.7249 -42.4968 -42.4960 -40.0586 -40.0580 -39.9412 -39.9396
   -19.7114 -19.7101 -18.6073 -18.6072 -11.1996 -11.1978  -9.1860  -9.1801
    -8.7327  -8.7317  -8.1681  -8.1547  -7.9148  -7.9103  -6.9649  -6.9498
    -6.1763  -6.1728  -3.5568  -3.5528  -3.3474  -3.3207

          k = 0.1987 0.1147 0.0000 (  3995 PWs)   bands (ev):

   -66.7198 -66.7198 -42.5107 -42.5107 -40.0710 -40.0710 -39.9653 -39.9653
   -19.4957 -19.4957 -18.5191 -18.5191 -11.0272 -11.0272  -9.4862  -9.4862
    -9.1072  -9.1072  -8.1210  -8.1210  -7.9403  -7.9403  -7.0771  -7.0771
    -6.3822  -6.3822  -3.7101  -3.7101  -3.3752  -3.3752

          k = 0.1987 0.3072 0.0000 (  4002 PWs)   bands (ev):

   -66.7050 -66.7050 -42.5579 -42.5482 -40.1267 -40.1192 -40.0230 -40.0166
   -18.8155 -18.7948 -18.2338 -18.2323 -10.9311 -10.9088  -9.8820  -9.8590
    -9.7091  -9.6952  -9.2157  -9.1900  -8.0031  -7.9250  -7.0784  -7.0482
    -6.7642  -6.6788  -4.0024  -3.9251  -3.3846  -3.3681

          k = 0.8654 0.8845 0.0000 (  3999 PWs)   bands (ev):

   -66.7083 -66.7083 -42.5474 -42.5399 -40.1119 -40.1081 -40.0131 -40.0060
   -18.9751 -18.9596 -18.3014 -18.3002 -10.8933 -10.8718  -9.7503  -9.7412
    -9.6648  -9.6415  -9.0742  -9.0519  -7.8696  -7.7956  -7.0303  -6.9978
    -6.7532  -6.6813  -3.9980  -3.9296  -3.4306  -3.4109

          k = 0.6987 0.5959 0.0000 (  3989 PWs)   bands (ev):

   -66.7120 -66.7120 -42.5360 -42.5300 -40.0949 -40.0939 -40.0029 -39.9952
   -19.1488 -19.1369 -18.3735 -18.3726 -10.8686 -10.8489  -9.7287  -9.7240
    -9.4096  -9.3845  -8.9500  -8.9275  -7.8629  -7.7981  -6.9357  -6.8999
    -6.6729  -6.6186  -3.9712  -3.9150  -3.4478  -3.4321

          k = 0.1987 0.4996 0.0000 (  4042 PWs)   bands (ev):

   -66.6918 -66.6918 -42.6010 -42.5823 -40.1976 -40.1688 -40.0530 -40.0506
   -18.0955 -18.0480 -17.9255 -17.9225 -11.1739 -11.1552 -11.0060 -10.9970
    -9.7407  -9.7370  -9.1126  -9.0927  -8.6400  -8.5846  -7.7389  -7.7331
    -6.3609  -6.2460  -3.7657  -3.7326  -2.9718  -2.8333

          k = 0.8654 1.0770 0.0000 (  4026 PWs)   bands (ev):

   -66.6935 -66.6935 -42.5949 -42.5811 -40.1977 -40.1794 -40.0335 -40.0324
   -18.1788 -18.1441 -17.9750 -17.9727 -11.3989 -11.3852 -10.8221 -10.8138
    -9.8493  -9.8419  -9.1290  -9.1141  -7.9729  -7.9023  -7.7061  -7.6939
    -6.4491  -6.3420  -3.6660  -3.6302  -3.1564  -3.0412

          k = 0.5321 0.4996 0.0000 (  4018 PWs)   bands (ev):

   -66.6955 -66.6955 -42.5887 -42.5738 -40.1803 -40.1606 -40.0390 -40.0376
   -18.3063 -18.2704 -18.0206 -18.0181 -11.1938 -11.1916 -10.6744 -10.6628
    -9.6861  -9.6840  -9.1958  -9.1778  -8.2900  -8.2231  -7.5210  -7.5065
    -6.5675  -6.4634  -3.6967  -3.6868  -3.2395  -3.1674

          k = 0.1987 0.6921 0.0000 (  4037 PWs)   bands (ev):

   -66.6935 -66.6935 -42.5956 -42.5780 -40.1881 -40.1622 -40.0491 -40.0480
   -18.1929 -18.1493 -17.9674 -17.9645 -11.1467 -11.1384 -10.8622 -10.8514
    -9.6501  -9.6484  -9.1739  -9.1543  -8.6072  -8.5476  -7.6089  -7.5988
    -6.4743  -6.3647  -3.7105  -3.6919  -3.1192  -3.0048

          k = 0.8654 1.2694 0.0000 (  4029 PWs)   bands (ev):

   -66.6953 -66.6953 -42.5889 -42.5759 -40.1863 -40.1698 -40.0321 -40.0302
   -18.2881 -18.2564 -18.0191 -18.0169 -11.3147 -11.3086 -10.6785 -10.6689
    -9.7815  -9.7790  -9.1509  -9.1359  -7.9909  -7.9199  -7.5988  -7.5841
    -6.5503  -6.4474  -3.6696  -3.6685  -3.2480  -3.1731

          k = 0.3654 0.4034 0.0000 (  4034 PWs)   bands (ev):

   -66.6921 -66.6920 -42.6001 -42.5832 -40.2014 -40.1771 -40.0435 -40.0429
   -18.1003 -18.0574 -17.9348 -17.9321 -11.3137 -11.2936 -10.9641 -10.9557
    -9.8339  -9.8248  -9.1112  -9.0931  -8.3047  -8.2417  -7.7604  -7.7525
    -6.3608  -6.2478  -3.7242  -3.6816  -3.0145  -2.8759

          k = 0.3654 0.5959 0.0000 (  4056 PWs)   bands (ev):

   -66.6887 -66.6887 -42.6116 -42.5877 -40.2052 -40.1573 -40.0852 -40.0708
   -17.9154 -17.8524 -17.8307 -17.8275 -11.3465 -11.3386 -10.6559 -10.6204
    -9.9369  -9.8879  -9.4416  -9.4330  -8.8685  -8.8220  -8.0751  -8.0562
    -6.0354  -5.8917  -4.1493  -4.1473  -2.8480  -2.8183

          k = 0.0722 0.0417 0.0000 (  3959 PWs)   bands (ev):

   -66.7314 -66.7314 -42.4786 -42.4786 -40.0482 -40.0482 -39.9010 -39.9010
   -19.9734 -19.9734 -18.7154 -18.7154 -11.4744 -11.4744  -8.6935  -8.6935
    -8.4279  -8.4279  -8.1181  -8.1181  -7.5167  -7.5167  -7.1210  -7.1210
    -5.9895  -5.9895  -3.2228  -3.2228  -3.0971  -3.0971

          k = 0.0722 0.2341 0.0000 (  3987 PWs)   bands (ev):

   -66.7182 -66.7182 -42.5166 -42.5139 -40.0751 -40.0742 -39.9762 -39.9713
   -19.4270 -19.4218 -18.4897 -18.4893 -10.9755 -10.9674  -9.5573  -9.5526
    -9.1415  -9.1339  -8.4015  -8.3993  -7.9309  -7.8970  -6.9580  -6.9311
    -6.4499  -6.4294  -3.7900  -3.7699  -3.4162  -3.4084

          k = 0.9055 0.5228 0.0000 (  3953 PWs)   bands (ev):

   -66.7300 -66.7300 -42.4824 -42.4824 -40.0499 -40.0499 -39.9099 -39.9099
   -19.9183 -19.9183 -18.6927 -18.6927 -11.4129 -11.4129  -8.8074  -8.8074
    -8.3760  -8.3760  -8.2810  -8.2810  -7.5988  -7.5988  -7.0479  -7.0479
    -6.0201  -6.0201  -3.2792  -3.2792  -3.2133  -3.2133

          k = 0.0722 0.4266 0.0000 (  4019 PWs)   bands (ev):

   -66.6992 -66.6992 -42.5749 -42.5681 -40.1700 -40.1629 -40.0161 -40.0135
   -18.4968 -18.4810 -18.1131 -18.1119 -11.3121 -11.3110 -10.3896 -10.3829
    -9.8184  -9.8180  -9.0049  -8.9971  -7.5870  -7.5820  -7.4711  -7.4167
    -6.7370  -6.6506  -3.7494  -3.7108  -3.3741  -3.3723

          k = 0.7388 0.4266 0.0000 (  3994 PWs)   bands (ev):

   -66.7121 -66.7121 -42.5330 -42.5330 -40.1009 -40.1009 -39.9909 -39.9909
   -19.1476 -19.1476 -18.3774 -18.3774 -10.9382 -10.9382  -9.7605  -9.7605
    -9.6003  -9.6003  -8.4424  -8.4424  -7.6156  -7.6156  -7.3009  -7.3009
    -6.7091  -6.7091  -3.7394  -3.7394  -3.5534  -3.5534

          k = 0.0722 0.6190 0.0000 (  4023 PWs)   bands (ev):

   -66.6935 -66.6935 -42.5933 -42.5852 -40.2054 -40.1954 -40.0195 -40.0180
   -18.1611 -18.1406 -17.9830 -17.9817 -11.6259 -11.6154 -10.7749 -10.7701
    -9.9636  -9.9565  -9.0929  -9.0851  -7.7954  -7.7905  -7.3255  -7.2532
    -6.4736  -6.3750  -3.6416  -3.6050  -3.1636  -3.0769

          k = 0.5722 0.3303 0.0000 (  3998 PWs)   bands (ev):

   -66.6955 -66.6955 -42.5835 -42.5835 -40.1936 -40.1936 -40.0111 -40.0111
   -18.2704 -18.2704 -18.0333 -18.0333 -11.6030 -11.6030 -10.6214 -10.6214
    -9.9442  -9.9442  -9.0169  -9.0169  -7.7797  -7.7797  -6.9360  -6.9360
    -6.6778  -6.6778  -3.6624  -3.6624  -3.2412  -3.2412

          k = 0.0722 0.8115 0.0000 (  4010 PWs)   bands (ev):

   -66.7068 -66.7068 -42.5511 -42.5459 -40.1255 -40.1222 -40.0076 -40.0035
   -18.8964 -18.8856 -18.2728 -18.2720 -11.0032 -10.9921  -9.8853  -9.8764
    -9.7823  -9.7774  -8.8343  -8.8267  -7.6254  -7.5615  -7.2981  -7.2763
    -6.8183  -6.7549  -3.8710  -3.8112  -3.4965  -3.4685

          k = 0.4055 0.2341 0.0000 (  4006 PWs)   bands (ev):

   -66.6969 -66.6969 -42.5791 -42.5791 -40.1852 -40.1852 -40.0103 -40.0103
   -18.3543 -18.3543 -18.0650 -18.0650 -11.5208 -11.5208 -10.5346 -10.5346
    -9.9091  -9.9091  -8.9730  -8.9730  -7.7460  -7.7460  -6.9895  -6.9895
    -6.7496  -6.7496  -3.6756  -3.6756  -3.3135  -3.3135

          k = 0.0722 1.0039 0.0000 (  3976 PWs)   bands (ev):

   -66.7257 -66.7257 -42.4946 -42.4935 -40.0569 -40.0561 -39.9371 -39.9346
   -19.7466 -19.7445 -18.6216 -18.6215 -11.2320 -11.2293  -9.1286  -9.1173
    -8.6403  -8.6397  -8.2134  -8.1886  -7.9424  -7.9362  -6.9113  -6.8863
    -6.1452  -6.1402  -3.5187  -3.5067  -3.4044  -3.3525

          k = 0.2388 0.1379 0.0000 (  3986 PWs)   bands (ev):

   -66.7149 -66.7149 -42.5248 -42.5248 -40.0886 -40.0886 -39.9833 -39.9833
   -19.2772 -19.2772 -18.4299 -18.4299 -10.9373 -10.9373  -9.6907  -9.6907
    -9.4260  -9.4260  -8.3305  -8.3305  -7.7332  -7.7332  -7.2153  -7.2153
    -6.5969  -6.5969  -3.7510  -3.7510  -3.4975  -3.4975

          k = 0.2388 0.3303 0.0000 (  4003 PWs)   bands (ev):

   -66.7009 -66.7009 -42.5712 -42.5592 -40.1489 -40.1364 -40.0312 -40.0267
   -18.6031 -18.5764 -18.1448 -18.1429 -11.0333 -11.0180 -10.2227 -10.2053
    -9.6561  -9.6445  -9.2415  -9.2202  -8.1501  -8.0762  -7.2366  -7.2134
    -6.7258  -6.6313  -3.9049  -3.8311  -3.3290  -3.3247

          k = 0.9055 0.9077 0.0000 (  4002 PWs)   bands (ev):

   -66.7075 -66.7075 -42.5494 -42.5431 -40.1196 -40.1160 -40.0097 -40.0043
   -18.9331 -18.9201 -18.2862 -18.2852 -10.9546 -10.9392  -9.8078  -9.7959
    -9.7628  -9.7550  -8.9187  -8.9071  -7.7326  -7.6643  -7.1864  -7.1609
    -6.7885  -6.7204  -3.9280  -3.8642  -3.4653  -3.4406

          k = 0.7388 0.6190 0.0000 (  3991 PWs)   bands (ev):

   -66.7161 -66.7161 -42.5231 -42.5193 -40.0811 -40.0804 -39.9861 -39.9798
   -19.3350 -19.3276 -18.4513 -18.4507 -10.9244 -10.9123  -9.6349  -9.6324
    -9.2292  -9.2167  -8.6042  -8.5965  -7.8894  -7.8443  -6.9345  -6.9033
    -6.5341  -6.5028  -3.8597  -3.8260  -3.4431  -3.4320

          k = 0.2388 0.5228 0.0000 (  4043 PWs)   bands (ev):

   -66.6902 -66.6902 -42.6066 -42.5852 -40.2019 -40.1648 -40.0678 -40.0607
   -18.0018 -17.9462 -17.8771 -17.8738 -11.1813 -11.1721 -11.0033 -10.9773
    -9.7410  -9.7375  -9.0726  -9.0276  -9.0012  -8.9697  -7.8716  -7.8692
    -6.2226  -6.0979  -3.9189  -3.8942  -2.7710  -2.7373

          k = 0.9055 1.1001 0.0000 (  4031 PWs)   bands (ev):

   -66.6935 -66.6935 -42.5940 -42.5837 -40.2032 -40.1902 -40.0240 -40.0224
   -18.1674 -18.1413 -17.9804 -17.9787 -11.5556 -11.5430 -10.7910 -10.7848
    -9.9315  -9.9232  -9.1031  -9.0928  -7.7716  -7.7686  -7.5382  -7.4708
    -6.4545  -6.3516  -3.6461  -3.6056  -3.1682  -3.0653

          k = 0.5722 0.5228 0.0000 (  4012 PWs)   bands (ev):

   -66.6988 -66.6988 -42.5780 -42.5649 -40.1610 -40.1456 -40.0345 -40.0313
   -18.4899 -18.4598 -18.0974 -18.0952 -11.0938 -11.0841 -10.3994 -10.3846
    -9.6463  -9.6375  -9.2341  -9.2144  -8.2187  -8.1477  -7.3371  -7.3173
    -6.6807  -6.5826  -3.8255  -3.7651  -3.3024  -3.2888

          k = 0.2388 0.7152 0.0000 (  4046 PWs)   bands (ev):

   -66.6935 -66.6935 -42.5957 -42.5772 -40.1849 -40.1565 -40.0547 -40.0524
   -18.1967 -18.1510 -17.9653 -17.9622 -11.0658 -11.0613 -10.8732 -10.8616
    -9.5360  -9.5294  -9.1887  -9.1693  -8.8469  -8.7915  -7.5776  -7.5679
    -6.4850  -6.3751  -3.7254  -3.7119  -3.1076  -2.9939

          k = 0.9055 1.2926 0.0000 (  4015 PWs)   bands (ev):

   -66.6978 -66.6978 -42.5801 -42.5710 -40.1764 -40.1662 -40.0213 -40.0186
   -18.4219 -18.4006 -18.0801 -18.0786 -11.3263 -11.3257 -10.4848 -10.4766
    -9.8074  -9.8069  -9.0773  -9.0668  -7.6638  -7.5966  -7.5527  -7.5444
    -6.6648  -6.5712  -3.7298  -3.6983  -3.3295  -3.3081

          k = 0.4055 0.4266 0.0000 (  4052 PWs)   bands (ev):

   -66.6912 -66.6912 -42.6029 -42.5856 -40.2066 -40.1812 -40.0448 -40.0438
   -18.0478 -18.0031 -17.9131 -17.9105 -11.3431 -11.3174 -11.0347 -11.0271
    -9.8867  -9.8740  -9.0807  -9.0620  -8.3002  -8.2383  -7.8286  -7.8228
    -6.2895  -6.1736  -3.7601  -3.7122  -2.9198  -2.7706

          k = 0.4055 0.6190 0.0000 (  4046 PWs)   bands (ev):

   -66.6895 -66.6895 -42.6089 -42.5864 -40.2035 -40.1619 -40.0752 -40.0653
   -17.9618 -17.9028 -17.8558 -17.8526 -11.2572 -11.2487 -10.8854 -10.8549
    -9.7747  -9.7589  -9.2455  -9.2136  -8.9618  -8.9224  -7.9525  -7.9446
    -6.1456  -6.0140  -4.0127  -3.9962  -2.7868  -2.7708

     Writing output data file MoS2.save/
 
     init_run     :      0.06s CPU      0.17s WALL (       1 calls)
     electrons    :      4.31s CPU      4.42s WALL (       1 calls)

     Called by init_run:
     wfcinit      :      0.00s CPU      0.00s WALL (       1 calls)
     potinit      :      0.03s CPU      0.13s WALL (       1 calls)
     hinit0       :      0.01s CPU      0.03s WALL (       1 calls)

     Called by electrons:
     c_bands      :      4.30s CPU      4.42s WALL (       1 calls)
     v_of_rho     :      0.00s CPU      0.00s WALL (       1 calls)

     Called by c_bands:
     init_us_2    :      0.00s CPU      0.00s WALL (       7 calls)
     cegterg      :      3.22s CPU      3.32s WALL (      19 calls)

     Called by sum_band:

     Called by *egterg:
     h_psi        :      1.84s CPU      1.91s WALL (     343 calls)
     g_psi        :      0.01s CPU      0.01s WALL (     317 calls)
     cdiaghg      :      1.13s CPU      1.17s WALL (     324 calls)

     Called by h_psi:
     h_psi:pot    :      1.84s CPU      1.91s WALL (     343 calls)
     h_psi:calbec :      0.06s CPU      0.07s WALL (     343 calls)
     vloc_psi     :      1.72s CPU      1.77s WALL (     343 calls)
     add_vuspsi   :      0.06s CPU      0.06s WALL (     343 calls)

     General routines
     calbec       :      0.06s CPU      0.07s WALL (     343 calls)
     fft          :      0.00s CPU      0.01s WALL (      13 calls)
     fftw         :      1.61s CPU      1.67s WALL (   21244 calls)
 
     Parallel routines
     fft_scatt_xy :      0.15s CPU      0.15s WALL (   21257 calls)
     fft_scatt_yz :      1.00s CPU      1.03s WALL (   21257 calls)
 
     PWSCF        :     48.96s CPU   1m12.61s WALL

 
   This run was terminated on:  12:53: 3   3May2021            

=------------------------------------------------------------------------------=
   JOB DONE.
=------------------------------------------------------------------------------=
