
     Program PWSCF v.6.4.1 starts on  3May2021 at 12:53:11 

     This program is part of the open-source Quantum ESPRESSO suite
     for quantum simulation of materials; please cite
         "P. Giannozzi et al., J. Phys.:Condens. Matter 21 395502 (2009);
         "P. Giannozzi et al., J. Phys.:Condens. Matter 29 465901 (2017);
          URL http://www.quantum-espresso.org", 
     in publications or presentations arising from this work. More details at
     http://www.quantum-espresso.org/quote

     Parallel version (MPI & OpenMP), running on     320 processor cores
     Number of MPI processes:               320
     Threads/MPI process:                     1

     MPI processes distributed on    10 nodes
     K-points division:     npool     =      10
     R & G space division:  proc/nbgrp/npool/nimage =      32
     Waiting for input...
     Reading input from standard input

     Current dimensions of program PWSCF are:
     Max number of different atomic species (ntypx) = 10
     Max number of k-points (npk) =  40000
     Max angular momentum in pseudopotentials (lmaxx) =  3

     Atomic positions and unit cell read from directory:
     ./MoS2.save/
 
     Message from routine readpp:
     file ./MoS2.save/Mo_FR.UPF not found
     Message from routine readpp:
     file ./MoS2.save/S_FR.UPF not found

     Subspace diagonalization in iterative solution of the eigenvalue problem:
     one sub-group per band group will be used
     scalapack distributed-memory algorithm (size of sub-group:  4*  4 procs)

     Message from routine setup:
     DEPRECATED: symmetry with ibrav=0, use correct ibrav instead
 
     Parallelization info
     --------------------
     sticks:   dense  smooth     PW     G-vecs:    dense   smooth      PW
     Min          12      12      4                  980      980     199
     Max          13      13      6                 1004     1004     208
     Sum         385     385    139                31921    31921    6509
 


     bravais-lattice index     =            0
     lattice parameter (alat)  =       5.9867  a.u.
     unit-cell volume          =     938.4712 (a.u.)^3
     number of atoms/cell      =            3
     number of atomic types    =            2
     number of electrons       =        26.00
     number of Kohn-Sham states=          502
     kinetic-energy cutoff     =      40.0000  Ry
     charge density cutoff     =     160.0000  Ry
     Exchange-correlation      = PBE ( 1  4  3  4 0 0)
     Non magnetic calculation with spin-orbit


     celldm(1)=   5.986676  celldm(2)=   0.000000  celldm(3)=   0.000000
     celldm(4)=   0.000000  celldm(5)=   0.000000  celldm(6)=   0.000000

     crystal axes: (cart. coord. in units of alat)
               a(1) = (   1.000000   0.000000   0.000000 )  
               a(2) = (  -0.500000   0.866025   0.000000 )  
               a(3) = (   0.000000   0.000000   5.050485 )  

     reciprocal axes: (cart. coord. in units 2 pi/alat)
               b(1) = (  1.000000  0.577350  0.000000 )  
               b(2) = (  0.000000  1.154701  0.000000 )  
               b(3) = (  0.000000  0.000000  0.198001 )  


     PseudoPot. # 1 for Mo read from file:
     ../../../pseudo/oncvpsp/Mo_FR.UPF
     MD5 check sum: 091442f9a55d305e44af61b3fb26c716
     Pseudo is Norm-conserving, Zval = 14.0
     Generated using ONCVPSP code by D. R. Hamann
     Using radial grid of 1526 points, 10 beta functions with: 
                l(1) =   0
                l(2) =   0
                l(3) =   1
                l(4) =   1
                l(5) =   1
                l(6) =   1
                l(7) =   2
                l(8) =   2
                l(9) =   2
               l(10) =   2

     PseudoPot. # 2 for S  read from file:
     ../../../pseudo/oncvpsp/S_FR.UPF
     MD5 check sum: 1ec1d62f6016a84edfc3cbeb70a0ad55
     Pseudo is Norm-conserving, Zval =  6.0
     Generated using ONCVPSP code by D. R. Hamann
     Using radial grid of 1146 points,  6 beta functions with: 
                l(1) =   0
                l(2) =   0
                l(3) =   1
                l(4) =   1
                l(5) =   1
                l(6) =   1

     atomic species   valence    mass     pseudopotential
        Mo            14.00     1.00000     Mo( 1.00)
        S              6.00     1.00000     S ( 1.00)

     12 Sym. Ops. (no inversion) found



   Cartesian axes

     site n.     atom                  positions (alat units)
         1           Mo  tau(   1) = (  -0.0000000   0.5773503   0.0000000  )
         2           S   tau(   2) = (   0.5000000   0.2886751  -0.4944526  )
         3           S   tau(   3) = (   0.5000000   0.2886751   0.4944526  )

     number of k points=    31
                       cart. coord. in units 2pi/alat
        k(    1) = (   0.0000000   0.0000000   0.0000000), wk =   0.0069444
        k(    2) = (   0.0000000   0.0962250   0.0000000), wk =   0.0208333
        k(    3) = (   0.0000000   0.1924501   0.0000000), wk =   0.0208333
        k(    4) = (   0.0000000   0.2886751   0.0000000), wk =   0.0208333
        k(    5) = (   0.0000000   0.3849002   0.0000000), wk =   0.0208333
        k(    6) = (   0.0000000   0.4811252   0.0000000), wk =   0.0208333
        k(    7) = (   0.0000000   0.5773503   0.0000000), wk =   0.0208333
        k(    8) = (   0.0000000   0.6735753   0.0000000), wk =   0.0208333
        k(    9) = (   0.0000000   0.7698004   0.0000000), wk =   0.0208333
        k(   10) = (   0.0000000   0.8660254   0.0000000), wk =   0.0208333
        k(   11) = (   0.0000000   0.9622504   0.0000000), wk =   0.0208333
        k(   12) = (   0.0000000   1.0584755   0.0000000), wk =   0.0208333
        k(   13) = (   0.0833333   0.1443376   0.0000000), wk =   0.0416667
        k(   14) = (   0.0833333   0.2405626   0.0000000), wk =   0.0416667
        k(   15) = (   0.0833333   0.3367877   0.0000000), wk =   0.0416667
        k(   16) = (   0.0833333   0.4330127   0.0000000), wk =   0.0416667
        k(   17) = (   0.0833333   0.5292377   0.0000000), wk =   0.0416667
        k(   18) = (   0.0833333   0.6254628   0.0000000), wk =   0.0416667
        k(   19) = (   0.0833333   0.7216878   0.0000000), wk =   0.0416667
        k(   20) = (   0.0833333   0.8179129   0.0000000), wk =   0.0416667
        k(   21) = (   0.0833333   0.9141379   0.0000000), wk =   0.0416667
        k(   22) = (   0.1666667   0.2886751   0.0000000), wk =   0.0416667
        k(   23) = (   0.1666667   0.3849002   0.0000000), wk =   0.0416667
        k(   24) = (   0.1666667   0.4811252   0.0000000), wk =   0.0416667
        k(   25) = (   0.1666667   0.5773503   0.0000000), wk =   0.0416667
        k(   26) = (   0.1666667   0.6735753   0.0000000), wk =   0.0416667
        k(   27) = (   0.1666667   0.7698004   0.0000000), wk =   0.0416667
        k(   28) = (   0.2500000   0.4330127   0.0000000), wk =   0.0416667
        k(   29) = (   0.2500000   0.5292377   0.0000000), wk =   0.0416667
        k(   30) = (   0.2500000   0.6254628   0.0000000), wk =   0.0416667
        k(   31) = (   0.3333333   0.5773503   0.0000000), wk =   0.0138889

     Dense  grid:    31921 G-vectors     FFT dimensions: (  25,  25, 125)

     Estimated max dynamical RAM per process >      24.12 MB

     Estimated total dynamical RAM >       7.54 GB
 ----2D----2D----2D----2D----2D----2D----2D----2D----2D----2D----2D----2D
  The code is running with the 2D cutoff
  Please refer to:
  Sohier, T., Calandra, M., & Mauri, F. (2017), 
  Density functional perturbation theory for gated two-dimensional heterostructu
 res:
  Theoretical developments and application to flexural phonons in graphene.
  Physical Review B, 96(7), 75448. https://doi.org/10.1103/PhysRevB.96.075448
 ----2D----2D----2D----2D----2D----2D----2D----2D----2D----2D----2D----2D

     The potential is recalculated from file :
     ./MoS2.save/charge-density

     Starting wfcs are   36 randomized atomic wfcs +  466 random wfcs

     Band Structure Calculation
     CG style diagonalization
     c_bands:  6 eigenvalues not converged
     c_bands:  2 eigenvalues not converged
     c_bands:  4 eigenvalues not converged
     c_bands:  2 eigenvalues not converged

     ethr =  3.85E-13,  avg # of iterations = 64.2

     total cpu time spent up to now is       99.8 secs

     End of band structure calculation

          k = 0.0000 0.0000 0.0000 (  3949 PWs)   bands (ev):

   -66.7334 -66.7334 -42.4733 -42.4733 -40.0459 -40.0459 -39.8877 -39.8877
   -20.0517 -20.0517 -18.7477 -18.7477 -11.5647 -11.5647  -8.5456  -8.5456
    -8.4804  -8.4804  -7.7327  -7.7327  -7.4312  -7.4312  -7.3458  -7.3458
    -5.9546  -5.9546  -3.1456  -3.1456  -3.0659  -3.0659  -2.8710  -2.8710
    -2.8688  -2.8688   0.0056   0.0056   0.5263   0.5263   0.7736   0.7736
     3.2526   3.2526   5.0753   5.0753   5.1554   5.1554   5.3297   5.3297
     6.3080   6.3080   7.1304   7.1304   7.1494   7.1494   7.3181   7.3181
    10.3511  10.3511  10.4868  10.4868  10.4999  10.4999  10.6791  10.6791
    10.7346  10.7346  10.7377  10.7377  13.0135  13.0135  13.4258  13.4258
    14.0068  14.0068  15.4469  15.4469  16.9966  16.9966  17.1265  17.1265
    18.3283  18.3283  18.6887  18.6887  18.8043  18.8043  18.8135  18.8135
    19.4557  19.4557  19.6157  19.6157  19.6270  19.6270  19.7678  19.7678
    19.9523  19.9523  19.9570  19.9570  20.4757  20.4757  20.8630  20.8630
    21.0887  21.0887  21.1919  21.1919  23.1675  23.1675  23.5141  23.5141
    23.5255  23.5255  23.6614  23.6614  23.7241  23.7241  24.0239  24.0239
    24.8474  24.8474  24.9041  24.9041  25.2427  25.2427  25.3221  25.3221
    25.4472  25.4472  25.4562  25.4562  26.0366  26.0366  26.9847  26.9847
    27.9205  27.9205  27.9467  27.9467  28.6832  28.6832  28.7019  28.7019
    28.7038  28.7038  30.0180  30.0180  30.0698  30.0698  30.0750  30.0750
    30.3008  30.3008  31.3912  31.3912  31.3958  31.3958  32.0770  32.0770
    32.3809  32.3809  32.4616  32.4616  32.4660  32.4660  32.5329  32.5329
    33.7192  33.7192  33.7728  33.7728  33.7853  33.7853  33.8309  33.8309
    33.8359  33.8359  34.4306  34.4306  35.4310  35.4310  35.6284  35.6284
    35.6310  35.6310  36.3726  36.3726  36.4703  36.4703  36.4721  36.4721
    37.0144  37.0144  37.0901  37.0901  37.5920  37.5920  37.6083  37.6083
    37.8601  37.8601  37.8815  37.8815  39.1563  39.1563  39.2118  39.2118
    39.4429  39.4429  40.1980  40.1980  40.2164  40.2164  40.6658  40.6658
    41.2264  41.2264  41.3198  41.3198  41.4050  41.4050  41.4542  41.4542
    41.4772  41.4772  41.5318  41.5318  42.2988  42.2988  42.4477  42.4477
    42.4736  42.4736  43.2912  43.2912  44.1159  44.1159  45.0266  45.0266
    45.4644  45.4644  45.4788  45.4788  46.2377  46.2377  46.2530  46.2530
    47.4045  47.4045  47.4179  47.4179  47.4868  47.4868  47.6994  47.6994
    48.1749  48.1749  48.5143  48.5143  48.5175  48.5175  49.4942  49.4942
    50.0426  50.0426  50.0784  50.0784  50.8873  50.8873  51.1848  51.1848
    51.1923  51.1923  51.2109  51.2109  51.2244  51.2244  51.7438  51.7438
    52.7028  52.7028  53.3900  53.3900  53.4363  53.4363  53.4384  53.4384
    54.3375  54.3375  54.5975  54.5975  54.8610  54.8610  54.8691  54.8691
    54.8754  54.8754  54.8767  54.8767  56.2076  56.2076  56.2604  56.2604
    56.2614  56.2614  56.3977  56.3977  56.6059  56.6059  57.2098  57.2098
    57.2107  57.2107  57.2578  57.2578  57.2640  57.2640  57.7007  57.7007
    58.1001  58.1001  58.7089  58.7089  58.7273  58.7273  59.4190  59.4190
    59.7470  59.7470  59.7507  59.7507  59.9873  59.9873  60.0025  60.0025
    60.3120  60.3120  60.6855  60.6855  60.9920  60.9920  61.0281  61.0281
    61.0473  61.0473  61.1617  61.1617  61.5715  61.5715  61.5747  61.5747
    61.6270  61.6270  61.8105  61.8105  62.1042  62.1042  62.1054  62.1054
    62.4236  62.4236  62.4571  62.4571  63.1642  63.1642  63.5693  63.5693
    64.0053  64.0053  64.0152  64.0152  64.4085  64.4085  64.4285  64.4285
    64.6584  64.6584  64.7087  64.7087  64.7133  64.7133  65.8745  65.8745
    65.9211  65.9211  65.9459  65.9459  66.0157  66.0157  66.0214  66.0214
    66.1919  66.1919  66.5063  66.5063  66.9393  66.9393  66.9405  66.9405
    67.1143  67.1143  67.1757  67.1757  67.1897  67.1897  67.2564  67.2564
    67.3044  67.3044  67.3086  67.3086  68.9933  68.9933  69.2055  69.2055
    69.3953  69.3953  69.4049  69.4049  69.4154  69.4154  70.2244  70.2244
    70.2296  70.2296  70.6635  70.6635  71.5270  71.5270  72.3291  72.3291
    72.4498  72.4498  72.4563  72.4563  72.5039  72.5039  72.5346  72.5346
    72.5441  72.5441  72.6118  72.6118  72.8608  72.8608  73.4469  73.4469
    73.4472  73.4472  74.5603  74.5603  74.8456  74.8456  74.8742  74.8742
    74.8855  74.8855  74.9100  74.9100  75.0686  75.0686  75.1553  75.1553
    75.1838  75.1838  75.2945  75.2945  75.3073  75.3073  75.6975  75.6975
    75.7170  75.7170  75.8837  75.8837  76.0643  76.0643  76.4270  76.4270
    76.4551  76.4551  77.5837  77.5837  77.5965  77.5965  77.6206  77.6206
    77.6247  77.6247  77.8886  77.8886  77.9428  77.9428  77.9541  77.9541
    78.1712  78.1712  78.1840  78.1840  78.2077  78.2077

          k = 0.0000 0.0962 0.0000 (  3957 PWs)   bands (ev):

   -66.7308 -66.7308 -42.4804 -42.4804 -40.0490 -40.0490 -39.9052 -39.9052
   -19.9476 -19.9476 -18.7048 -18.7048 -11.4454 -11.4454  -8.7475  -8.7475
    -8.4028  -8.4028  -8.1999  -8.1999  -7.5555  -7.5555  -7.0816  -7.0816
    -6.0032  -6.0032  -3.2499  -3.2499  -3.1548  -3.1548  -2.9954  -2.9954
    -2.9081  -2.9081   0.2942   0.2942   0.6559   0.6559   1.1320   1.1320
     3.7254   3.7254   4.6301   4.6301   5.4449   5.4449   5.6759   5.6759
     6.1862   6.1862   6.5809   6.5809   7.1810   7.1810   7.2141   7.2141
     9.7384   9.7384  10.3263  10.3263  10.3831  10.3831  10.6734  10.6734
    11.1599  11.1599  11.3844  11.3844  13.3091  13.3091  13.7366  13.7366
    14.8979  14.8979  15.3604  15.3604  16.5100  16.5100  16.6384  16.6384
    17.3581  17.3581  17.4246  17.4246  18.0560  18.0560  18.4686  18.4686
    18.6323  18.6323  18.9318  18.9318  18.9571  18.9571  19.5561  19.5561
    20.8345  20.8345  20.9736  20.9736  21.1687  21.1687  21.6264  21.6264
    21.9607  21.9607  22.2243  22.2243  22.6310  22.6310  22.7413  22.7413
    22.9286  22.9286  23.1894  23.1894  24.1551  24.1551  24.2383  24.2383
    24.7304  24.7304  24.9381  24.9381  25.3950  25.3950  26.0048  26.0048
    26.0295  26.0295  26.2737  26.2737  27.0262  27.0262  27.2806  27.2806
    27.3419  27.3419  27.4437  27.4437  28.4039  28.4039  28.5394  28.5394
    29.3783  29.3783  29.8951  29.8951  30.3290  30.3290  30.3520  30.3520
    30.7628  30.7628  30.8476  30.8476  31.2458  31.2458  31.3293  31.3293
    31.3804  31.3804  32.4696  32.4696  32.8328  32.8328  33.1393  33.1393
    33.2621  33.2621  33.4863  33.4863  33.4917  33.4917  33.8371  33.8371
    34.0211  34.0211  34.3012  34.3012  35.1887  35.1887  35.7589  35.7589
    35.8079  35.8079  35.8646  35.8646  35.9859  35.9859  36.1085  36.1085
    37.3344  37.3344  37.5002  37.5002  37.6175  37.6175  37.9095  37.9095
    37.9877  37.9877  38.8165  38.8165  38.8761  38.8761  39.5191  39.5191
    39.8874  39.8874  40.0443  40.0443  40.3633  40.3633  40.5282  40.5282
    41.0483  41.0483  41.1908  41.1908  41.9904  41.9904  42.0962  42.0962
    42.4635  42.4635  42.7189  42.7189  42.8941  42.8941  43.6927  43.6927
    43.8069  43.8069  43.8771  43.8771  44.4810  44.4810  44.4931  44.4931
    44.5229  44.5229  45.3886  45.3886  45.7253  45.7253  46.1541  46.1541
    46.2003  46.2003  47.0828  47.0828  47.2480  47.2480  47.2881  47.2881
    47.6570  47.6570  48.9654  48.9654  49.2647  49.2647  49.3331  49.3331
    49.3582  49.3582  49.9308  49.9308  50.0151  50.0151  50.5937  50.5937
    51.0053  51.0053  51.1593  51.1593  51.3982  51.3982  52.3163  52.3163
    53.0237  53.0237  53.2053  53.2053  53.2059  53.2059  53.3100  53.3100
    53.4813  53.4813  53.8133  53.8133  53.8442  53.8442  54.2241  54.2241
    54.5915  54.5915  54.7782  54.7782  55.0160  55.0160  55.6703  55.6703
    56.1851  56.1851  56.3107  56.3107  56.5329  56.5329  56.6437  56.6437
    56.7249  56.7249  57.2358  57.2358  57.3213  57.3213  57.3845  57.3845
    57.8600  57.8600  58.2294  58.2294  58.7440  58.7440  58.7608  58.7608
    58.8375  58.8375  59.0335  59.0335  59.7487  59.7487  60.0092  60.0092
    60.1993  60.1993  60.2523  60.2523  60.4346  60.4346  61.0202  61.0202
    61.2173  61.2173  61.3548  61.3548  61.3735  61.3735  61.8050  61.8050
    62.0936  62.0936  62.4360  62.4360  62.5733  62.5733  62.8209  62.8209
    62.9064  62.9064  62.9381  62.9381  63.3607  63.3607  63.3710  63.3710
    63.9675  63.9675  64.1185  64.1185  64.3252  64.3252  64.5471  64.5471
    64.5892  64.5892  65.2214  65.2214  65.2654  65.2654  65.5074  65.5074
    65.9016  65.9016  65.9522  65.9522  66.2997  66.2997  66.5499  66.5499
    66.7277  66.7277  66.7765  66.7765  67.2353  67.2353  67.6596  67.6596
    67.6692  67.6692  67.8106  67.8106  67.9941  67.9941  68.3239  68.3239
    68.6019  68.6019  68.6377  68.6377  68.6666  68.6666  69.1062  69.1062
    69.2787  69.2787  69.5822  69.5822  70.1121  70.1121  70.2713  70.2713
    70.3711  70.3711  70.4181  70.4181  70.9402  70.9402  70.9926  70.9926
    71.5625  71.5625  71.7366  71.7366  71.7596  71.7596  71.9579  71.9579
    72.2239  72.2239  72.5258  72.5258  72.6188  72.6188  72.9563  72.9563
    73.6769  73.6769  73.7568  73.7568  73.8346  73.8346  73.9839  73.9839
    74.0184  74.0184  74.3104  74.3104  74.5902  74.5902  74.6218  74.6218
    74.6307  74.6307  74.6703  74.6703  74.8354  74.8354  75.4038  75.4038
    75.8757  75.8757  76.0072  76.0072  76.1362  76.1362  76.2220  76.2220
    76.2752  76.2752  76.4781  76.4781  76.9645  76.9645  77.2476  77.2476
    77.4992  77.4992  77.7864  77.7864  77.8564  77.8564  78.0837  78.0837
    78.3142  78.3142  78.5140  78.5140  78.8760  78.8761

          k = 0.0000 0.1925 0.0000 (  3983 PWs)   bands (ev):

   -66.7235 -66.7235 -42.5004 -42.5004 -40.0614 -40.0614 -39.9479 -39.9479
   -19.6515 -19.6515 -18.5829 -18.5829 -11.1459 -11.1459  -9.2768  -9.2768
    -8.8516  -8.8516  -8.0999  -8.0999  -7.9443  -7.9443  -7.0043  -7.0043
    -6.2296  -6.2296  -3.6121  -3.6121  -3.3007  -3.3007  -3.2510  -3.2510
    -2.5088  -2.5088   0.7588   0.7588   1.0202   1.0202   2.1509   2.1509
     4.0394   4.0394   4.2999   4.2999   5.5542   5.5542   5.9125   5.9125
     6.3331   6.3331   6.7178   6.7178   6.8470   6.8470   7.4195   7.4195
     8.7736   8.7736   9.4341   9.4341   9.8578   9.8578  11.1083  11.1083
    11.9678  11.9678  13.0256  13.0256  13.7300  13.7300  13.9967  13.9967
    14.4700  14.4700  14.9584  14.9584  15.6238  15.6238  16.0918  16.0918
    16.8841  16.8841  16.9101  16.9101  17.1724  17.1724  17.6822  17.6822
    18.4750  18.4750  18.5418  18.5418  19.1970  19.1970  19.2681  19.2681
    19.4409  19.4409  20.0885  20.0885  21.2684  21.2684  21.5456  21.5456
    22.1163  22.1163  22.3229  22.3229  23.3792  23.3792  23.4935  23.4935
    23.5917  23.5917  24.1017  24.1017  24.4893  24.4893  24.9447  24.9447
    24.9636  24.9636  25.3422  25.3422  25.5854  25.5854  26.2934  26.2934
    26.2999  26.2999  26.4747  26.4747  27.1379  27.1379  27.8629  27.8629
    27.9200  27.9200  28.1130  28.1130  28.4054  28.4054  28.4325  28.4325
    28.6188  28.6188  29.0332  29.0332  29.7209  29.7209  30.2270  30.2270
    30.4345  30.4345  30.9030  30.9030  31.1358  31.1358  31.3600  31.3600
    31.7311  31.7311  32.3386  32.3386  32.5800  32.5800  32.7654  32.7654
    32.9281  32.9281  33.1232  33.1232  33.2615  33.2615  34.3866  34.3866
    34.4231  34.4231  34.7943  34.7943  35.1625  35.1625  35.5493  35.5493
    35.9523  35.9523  36.4252  36.4252  36.5690  36.5690  37.0071  37.0071
    37.2605  37.2605  37.5584  37.5584  37.9271  37.9271  38.1952  38.1952
    38.7716  38.7716  38.8249  38.8249  39.8721  39.8721  40.1322  40.1322
    40.2395  40.2395  40.7311  40.7311  41.0601  41.0601  41.5435  41.5435
    41.7398  41.7398  41.8263  41.8263  42.2737  42.2737  42.4809  42.4809
    43.1104  43.1104  43.1530  43.1530  43.3287  43.3287  43.3593  43.3593
    43.7624  43.7624  43.7945  43.7945  44.5842  44.5842  44.6800  44.6800
    45.0768  45.0768  45.2075  45.2075  45.4751  45.4751  46.2664  46.2664
    46.5271  46.5271  46.7314  46.7314  47.4046  47.4046  47.5644  47.5644
    47.6732  47.6732  47.7037  47.7037  48.2615  48.2615  48.7699  48.7699
    49.1275  49.1275  49.8070  49.8070  49.9125  49.9125  50.5525  50.5525
    50.8225  50.8225  51.0385  51.0385  51.0520  51.0520  51.4095  51.4095
    51.4154  51.4154  51.5281  51.5281  51.6244  51.6244  52.3489  52.3489
    52.8158  52.8158  53.2804  53.2804  53.3723  53.3723  53.4736  53.4736
    53.5123  53.5123  54.4092  54.4092  54.6039  54.6039  54.7776  54.7776
    55.3117  55.3117  55.4028  55.4028  55.4049  55.4049  55.8774  55.8774
    55.9247  55.9247  56.7183  56.7183  57.0102  57.0102  57.1188  57.1188
    57.7420  57.7420  57.9977  57.9977  58.0326  58.0326  58.5136  58.5136
    58.6967  58.6967  58.9367  58.9367  59.5927  59.5927  59.9371  59.9371
    60.2620  60.2620  60.2986  60.2986  60.5372  60.5372  60.5661  60.5661
    60.7526  60.7526  61.0722  61.0722  61.1178  61.1178  61.4893  61.4893
    61.7764  61.7764  61.9595  61.9595  62.3673  62.3673  62.7154  62.7154
    63.4351  63.4351  63.5507  63.5507  63.7721  63.7721  63.8620  63.8620
    64.0065  64.0065  64.0752  64.0752  64.7079  64.7079  64.7542  64.7542
    65.0305  65.0305  65.4721  65.4721  65.6431  65.6431  65.7960  65.7960
    66.1187  66.1187  66.1229  66.1229  66.6650  66.6650  66.7345  66.7345
    66.7904  66.7904  67.2245  67.2245  67.3894  67.3894  67.6015  67.6015
    67.7229  67.7229  68.0302  68.0302  68.1184  68.1184  68.2759  68.2759
    68.4209  68.4209  69.1115  69.1115  69.2033  69.2033  69.2697  69.2697
    69.4272  69.4272  69.5796  69.5796  69.9078  69.9078  70.2997  70.2997
    70.5406  70.5406  70.7402  70.7402  70.7934  70.7934  70.8726  70.8726
    71.2673  71.2673  71.4875  71.4875  71.6462  71.6462  71.6611  71.6611
    72.1766  72.1766  72.3655  72.3655  72.4606  72.4606  72.4870  72.4870
    72.5426  72.5426  72.8034  72.8034  73.3280  73.3280  73.3775  73.3775
    73.6755  73.6755  73.7096  73.7096  74.1234  74.1234  74.4669  74.4669
    74.8934  74.8934  74.9688  74.9688  75.0414  75.0414  75.2163  75.2163
    75.3873  75.3873  75.5642  75.5642  75.7266  75.7266  76.1526  76.1526
    76.4061  76.4061  76.5924  76.5924  76.7755  76.7755  77.0306  77.0306
    77.1077  77.1077  77.1809  77.1809  77.7783  77.7783  77.9568  77.9568
    78.2769  78.2769  78.4796  78.4796  78.6478  78.6481

          k = 0.0000 0.2887 0.0000 (  3986 PWs)   bands (ev):

   -66.7135 -66.7135 -42.5288 -42.5288 -40.0945 -40.0945 -39.9874 -39.9874
   -19.2130 -19.2130 -18.4038 -18.4038 -10.9324 -10.9324  -9.7299  -9.7299
    -9.5137  -9.5137  -8.3871  -8.3871  -7.6742  -7.6742  -7.2580  -7.2580
    -6.6547  -6.6547  -3.7478  -3.7478  -3.5268  -3.5268  -2.9649  -2.9649
    -2.0880  -2.0880   1.2313   1.2313   1.5347   1.5347   2.8096   2.8096
     3.4895   3.4895   3.7409   3.7409   5.9762   5.9762   6.0416   6.0416
     6.6215   6.6215   7.1426   7.1426   7.2390   7.2390   7.9427   7.9427
     8.7071   8.7071   8.7687   8.7687   9.4756   9.4756  11.6021  11.6021
    11.8105  11.8105  11.9181  11.9181  12.9713  12.9713  14.0045  14.0045
    14.8708  14.8708  15.2101  15.2101  15.6520  15.6520  16.1346  16.1346
    16.4883  16.4883  16.5548  16.5548  16.9014  16.9014  17.5056  17.5056
    18.0480  18.0480  18.5427  18.5427  18.6123  18.6123  18.9598  18.9598
    20.0454  20.0454  20.2343  20.2343  20.9379  20.9379  21.2746  21.2746
    21.3287  21.3287  22.1665  22.1665  23.3148  23.3148  23.7531  23.7531
    24.1401  24.1401  24.5417  24.5417  24.6997  24.6997  24.9523  24.9523
    25.0720  25.0720  25.3542  25.3542  25.5814  25.5814  25.6508  25.6508
    26.0352  26.0352  26.4123  26.4123  27.1114  27.1114  27.4467  27.4467
    27.5982  27.5982  28.0022  28.0022  28.1242  28.1242  29.3772  29.3772
    29.6940  29.6940  29.8135  29.8135  30.2558  30.2558  30.2972  30.2972
    30.3455  30.3455  30.7507  30.7507  30.7665  30.7665  31.5241  31.5241
    32.2637  32.2637  32.4233  32.4233  32.8968  32.8968  33.0123  33.0123
    33.5674  33.5674  33.8832  33.8832  34.1404  34.1404  34.6337  34.6337
    35.0885  35.0885  35.1912  35.1912  35.3669  35.3669  35.9696  35.9696
    36.2194  36.2194  36.2597  36.2597  37.3943  37.3943  37.6520  37.6520
    37.6978  37.6978  37.8829  37.8829  38.0464  38.0464  39.0881  39.0881
    39.1217  39.1217  39.3225  39.3225  40.1102  40.1102  40.2910  40.2910
    40.6478  40.6478  40.8197  40.8197  41.3219  41.3219  41.5815  41.5815
    41.6560  41.6560  41.8985  41.8985  42.4492  42.4492  42.5628  42.5628
    42.6581  42.6581  43.1421  43.1421  43.2142  43.2142  43.3104  43.3104
    44.2617  44.2617  44.3150  44.3150  44.6775  44.6775  44.8020  44.8020
    45.1587  45.1587  45.6503  45.6503  45.7272  45.7272  46.0068  46.0068
    46.2675  46.2675  46.4950  46.4950  47.3558  47.3558  47.3760  47.3760
    47.5321  47.5321  47.6795  47.6795  47.7887  47.7887  47.8652  47.8652
    48.3284  48.3284  49.1734  49.1734  49.4260  49.4260  49.7232  49.7232
    49.8596  49.8596  50.2294  50.2294  50.3141  50.3141  50.8897  50.8897
    51.3539  51.3539  51.4426  51.4426  51.8265  51.8265  52.4355  52.4355
    52.7251  52.7251  52.8705  52.8705  53.0520  53.0520  53.1915  53.1915
    53.3772  53.3772  53.8351  53.8351  54.1943  54.1943  54.2304  54.2304
    54.3663  54.3663  54.8523  54.8523  54.9136  54.9136  55.5525  55.5525
    56.0699  56.0699  56.0984  56.0984  56.7019  56.7019  56.8058  56.8058
    57.0714  57.0714  57.2643  57.2643  58.0850  58.0850  58.4196  58.4196
    58.4203  58.4203  58.7988  58.7988  58.8089  58.8089  59.2345  59.2345
    59.4341  59.4341  59.7547  59.7547  60.1851  60.1851  60.3421  60.3421
    60.5876  60.5876  60.8995  60.8995  61.1116  61.1116  61.3165  61.3165
    61.4400  61.4400  61.7580  61.7580  61.8501  61.8501  61.9534  61.9534
    62.2393  62.2393  62.2805  62.2805  62.8655  62.8655  62.9232  62.9232
    63.3349  63.3349  64.1613  64.1613  64.2034  64.2034  64.2628  64.2628
    64.2749  64.2749  64.7361  64.7361  65.1409  65.1409  65.3338  65.3338
    65.7500  65.7500  65.9986  65.9986  66.4561  66.4561  66.5216  66.5216
    66.8855  66.8855  67.2167  67.2167  67.2950  67.2950  67.3930  67.3930
    67.4762  67.4762  67.7824  67.7824  67.8475  67.8475  67.9430  67.9430
    68.4902  68.4902  68.5358  68.5358  69.0374  69.0374  69.2764  69.2764
    69.4199  69.4199  69.4496  69.4496  69.8938  69.8938  69.9995  69.9995
    70.7832  70.7832  70.8590  70.8590  71.0322  71.0322  71.1210  71.1210
    71.5101  71.5101  71.5972  71.5972  71.7999  71.7999  71.8058  71.8058
    72.1045  72.1045  72.2457  72.2457  72.6542  72.6542  72.8479  72.8479
    73.0353  73.0353  73.2953  73.2953  73.7444  73.7444  73.7839  73.7839
    73.7876  73.7876  74.0597  74.0597  74.0873  74.0873  74.2870  74.2870
    74.5316  74.5316  75.2200  75.2200  75.2573  75.2573  75.2912  75.2912
    75.3671  75.3671  75.7564  75.7564  76.2698  76.2698  76.3102  76.3102
    76.3323  76.3323  76.5308  76.5308  76.8806  76.8806  77.1966  77.1966
    77.6366  77.6366  77.6889  77.6889  77.8642  77.8642  77.9794  77.9794
    78.0858  78.0858  78.3176  78.3176  78.5542  78.5542

          k = 0.0000 0.3849 0.0000 (  4008 PWs)   bands (ev):

   -66.7035 -66.7035 -42.5587 -42.5587 -40.1464 -40.1464 -40.0051 -40.0051
   -18.7205 -18.7205 -18.2068 -18.2068 -11.1824 -11.1824 -10.1312 -10.1312
    -9.8225  -9.8225  -8.7567  -8.7567  -7.5724  -7.5724  -7.2471  -7.2471
    -6.8944  -6.8944  -3.6844  -3.6844  -3.5543  -3.5543  -2.4767  -2.4767
    -1.7830  -1.7830   1.6335   1.6335   1.9261   1.9261   2.0740   2.0740
     3.0193   3.0193   3.8788   3.8788   5.4721   5.4721   6.0172   6.0172
     6.6621   6.6621   7.1834   7.1834   7.9515   7.9515   8.7368   8.7368
     9.5252   9.5252   9.6634   9.6634   9.7160   9.7160  10.3491  10.3491
    10.4996  10.4996  12.0156  12.0156  13.4933  13.4933  13.6840  13.6840
    14.6695  14.6695  14.6977  14.6977  15.0142  15.0142  15.8996  15.8996
    16.1977  16.1977  16.2382  16.2382  17.0695  17.0695  17.9866  17.9866
    18.0281  18.0281  18.0863  18.0863  19.4482  19.4482  19.5915  19.5915
    19.9236  19.9236  20.5714  20.5714  20.9450  20.9450  21.3330  21.3330
    21.6128  21.6128  21.9547  21.9547  22.5067  22.5067  22.7048  22.7048
    22.9794  22.9794  23.0287  23.0287  23.9869  23.9869  24.3479  24.3479
    24.8239  24.8239  25.1281  25.1281  25.4696  25.4696  26.0471  26.0471
    26.6655  26.6655  27.0373  27.0373  27.1649  27.1649  28.1805  28.1805
    28.4735  28.4735  28.6165  28.6165  28.7551  28.7551  29.4068  29.4068
    29.4856  29.4856  29.6031  29.6031  30.2041  30.2041  30.3169  30.3169
    30.8214  30.8214  31.7684  31.7684  32.1251  32.1251  32.4298  32.4298
    32.8763  32.8763  32.9380  32.9380  33.3832  33.3832  33.5485  33.5485
    33.7953  33.7953  34.3774  34.3774  34.5333  34.5333  35.2323  35.2323
    35.3471  35.3471  35.3954  35.3954  35.9288  35.9288  36.1124  36.1124
    36.4469  36.4469  36.5896  36.5896  37.1452  37.1452  37.3620  37.3620
    37.6277  37.6277  38.0375  38.0375  38.4466  38.4466  39.1799  39.1799
    39.3914  39.3914  39.4624  39.4624  39.6128  39.6128  40.2294  40.2294
    40.3267  40.3267  40.8678  40.8678  41.6414  41.6414  41.6871  41.6871
    41.8343  41.8343  42.1977  42.1977  42.4134  42.4134  42.4741  42.4741
    42.6352  42.6352  43.0889  43.0889  43.4355  43.4355  43.5142  43.5142
    44.0399  44.0399  44.3110  44.3110  44.3936  44.3936  44.7952  44.7952
    45.1941  45.1941  45.2248  45.2248  45.4255  45.4255  45.4679  45.4679
    45.8094  45.8094  46.0027  46.0027  47.0004  47.0004  47.2053  47.2053
    47.9572  47.9572  48.0302  48.0302  48.1691  48.1691  48.8414  48.8414
    48.9100  48.9100  49.3216  49.3216  49.3564  49.3564  49.3797  49.3797
    49.7471  49.7471  49.8698  49.8698  50.2233  50.2233  50.6372  50.6372
    50.8541  50.8541  51.0734  51.0734  51.3833  51.3833  52.2866  52.2866
    52.5515  52.5515  52.5826  52.5826  52.8733  52.8733  52.9602  52.9602
    53.3429  53.3429  53.7585  53.7585  54.3036  54.3036  54.4987  54.4987
    54.5999  54.5999  54.6244  54.6244  54.8529  54.8529  55.2315  55.2315
    55.6963  55.6963  56.0186  56.0186  56.0275  56.0275  56.0556  56.0556
    56.2592  56.2592  56.5905  56.5905  57.2366  57.2366  57.3484  57.3484
    57.5608  57.5608  57.8353  57.8353  58.6468  58.6468  59.0181  59.0181
    59.3570  59.3570  59.3948  59.3948  59.4488  59.4488  59.6569  59.6569
    59.9096  59.9096  60.1573  60.1573  60.4718  60.4718  60.8344  60.8344
    60.9954  60.9954  61.4200  61.4200  61.5196  61.5196  61.7674  61.7674
    62.2505  62.2505  62.3129  62.3129  62.3218  62.3218  62.3991  62.3991
    63.0207  63.0207  63.3112  63.3112  63.5806  63.5806  63.6607  63.6607
    63.7394  63.7394  63.7726  63.7726  64.4236  64.4236  64.4997  64.4997
    65.1516  65.1516  65.4450  65.4450  66.0065  66.0065  66.3834  66.3834
    66.4955  66.4955  66.5319  66.5319  66.7590  66.7590  66.8295  66.8295
    67.6025  67.6025  67.8512  67.8512  68.0760  68.0760  68.1636  68.1636
    68.2318  68.2318  68.5709  68.5709  68.5931  68.5931  68.8628  68.8628
    69.2605  69.2605  69.7703  69.7703  69.8958  69.8958  70.0131  70.0131
    70.3752  70.3752  70.4005  70.4005  70.4389  70.4389  70.7770  70.7770
    70.7869  70.7869  70.9992  70.9992  71.4435  71.4435  71.7443  71.7443
    71.8199  71.8199  72.1293  72.1293  72.3390  72.3390  72.5532  72.5532
    72.8271  72.8271  73.0901  73.0901  73.4217  73.4217  73.4634  73.4634
    73.6013  73.6013  73.6938  73.6938  74.2229  74.2229  74.7202  74.7202
    74.7433  74.7433  75.0469  75.0469  75.1974  75.1974  75.4396  75.4396
    75.5136  75.5136  75.6208  75.6208  76.0727  76.0727  76.6829  76.6829
    76.9016  76.9016  76.9605  76.9605  77.0623  77.0623  77.2826  77.2826
    77.6158  77.6158  77.7217  77.7217  77.8963  77.8963  77.9733  77.9733
    78.3202  78.3202  78.4705  78.4705  78.8417  78.8417

          k = 0.0000 0.4811 0.0000 (  4004 PWs)   bands (ev):

   -66.6962 -66.6962 -42.5815 -42.5815 -40.1897 -40.1897 -40.0108 -40.0108
   -18.3101 -18.3101 -18.0483 -18.0483 -11.5640 -11.5640 -10.5806 -10.5806
    -9.9269  -9.9269  -8.9964  -8.9964  -7.7640  -7.7640  -6.9610  -6.9610
    -6.7134  -6.7134  -3.6692  -3.6692  -3.2763  -3.2763  -2.1172  -2.1172
    -1.6171  -1.6171   0.8468   0.8468   2.0022   2.0022   2.1724   2.1724
     3.1613   3.1613   4.0746   4.0746   5.0339   5.0339   5.6014   5.6014
     5.8476   5.8476   7.3984   7.3984   7.7416   7.7416   9.5187   9.5187
     9.5325   9.5325   9.9486   9.9486  10.7060  10.7060  11.1089  11.1089
    11.3675  11.3675  12.3537  12.3537  12.9614  12.9614  13.5295  13.5295
    14.1807  14.1807  14.4734  14.4734  14.5498  14.5498  15.4598  15.4598
    15.6757  15.6757  15.9989  15.9989  17.6085  17.6085  17.7370  17.7370
    17.7503  17.7503  18.2726  18.2726  19.2521  19.2521  19.2773  19.2773
    19.6172  19.6172  20.0014  20.0014  20.3859  20.3859  21.4576  21.4576
    21.5013  21.5013  21.6889  21.6889  22.0602  22.0602  22.9275  22.9275
    22.9629  22.9629  23.0593  23.0593  23.4429  23.4429  24.3245  24.3245
    24.6218  24.6218  25.6180  25.6180  26.1580  26.1580  26.4801  26.4801
    26.8804  26.8804  26.9829  26.9829  27.7995  27.7995  28.4056  28.4056
    28.7171  28.7171  28.9444  28.9444  29.1359  29.1359  29.3664  29.3664
    29.6735  29.6735  30.2892  30.2892  30.4669  30.4669  31.0927  31.0927
    31.7192  31.7192  31.7935  31.7935  31.9193  31.9193  32.2579  32.2579
    32.4270  32.4270  33.0534  33.0534  33.5013  33.5013  33.8334  33.8334
    34.0100  34.0100  34.0420  34.0420  34.9313  34.9313  35.2458  35.2458
    35.2585  35.2585  35.3248  35.3248  35.5189  35.5189  36.4607  36.4607
    36.8014  36.8014  37.3911  37.3911  37.7094  37.7094  38.0349  38.0349
    38.1876  38.1876  38.3314  38.3314  38.3695  38.3695  38.7212  38.7212
    39.0548  39.0548  39.0915  39.0915  39.8000  39.8000  39.9368  39.9368
    40.4659  40.4659  40.5179  40.5179  40.7333  40.7333  41.2147  41.2147
    41.4824  41.4824  42.0916  42.0916  42.2968  42.2968  42.3541  42.3541
    42.8094  42.8094  43.3180  43.3180  43.4916  43.4916  43.5448  43.5448
    43.9163  43.9163  44.6972  44.6972  44.7785  44.7785  45.1281  45.1281
    45.4055  45.4055  45.4401  45.4401  46.2774  46.2774  46.2943  46.2943
    46.6667  46.6667  46.7493  46.7493  46.9737  46.9737  47.4075  47.4075
    47.4395  47.4395  47.5542  47.5542  47.9138  47.9138  48.7074  48.7074
    48.7307  48.7307  49.1448  49.1448  49.2038  49.2038  49.6357  49.6357
    49.8244  49.8244  50.2126  50.2126  50.5202  50.5202  50.9438  50.9438
    51.2330  51.2330  51.3750  51.3750  51.5522  51.5522  51.5637  51.5637
    51.8557  51.8557  52.0672  52.0672  52.3086  52.3086  52.4593  52.4593
    52.7097  52.7097  52.8203  52.8203  53.3244  53.3244  53.7961  53.7961
    53.8704  53.8704  54.0864  54.0864  54.5988  54.5988  54.6592  54.6592
    55.5674  55.5674  55.7513  55.7513  56.1163  56.1163  56.3859  56.3859
    56.6891  56.6891  56.7176  56.7176  57.0222  57.0222  57.3505  57.3505
    57.4245  57.4245  58.0999  58.0999  58.2066  58.2066  58.4422  58.4422
    58.6093  58.6093  58.8388  58.8388  59.1163  59.1163  59.2077  59.2077
    59.6733  59.6733  59.7022  59.7022  59.7278  59.7278  60.2338  60.2338
    60.7736  60.7736  60.8966  60.8966  60.9741  60.9741  61.8390  61.8390
    61.8629  61.8629  62.1996  62.1996  63.0791  63.0791  63.1999  63.1999
    63.2339  63.2339  63.3010  63.3010  63.3200  63.3200  63.8589  63.8589
    63.8739  63.8739  64.2053  64.2053  64.2435  64.2435  64.4430  64.4430
    64.7555  64.7555  65.1128  65.1128  65.2198  65.2198  65.6845  65.6845
    65.7060  65.7060  66.1256  66.1256  66.3662  66.3662  66.8827  66.8827
    67.0315  67.0315  67.0514  67.0514  67.3858  67.3858  67.4275  67.4275
    67.6660  67.6660  67.9880  67.9880  68.1161  68.1161  68.3316  68.3316
    68.5794  68.5794  68.8251  68.8251  69.2010  69.2010  69.4831  69.4831
    69.8207  69.8207  69.9540  69.9540  69.9987  69.9987  70.2550  70.2550
    70.7578  70.7578  70.9511  70.9511  71.0113  71.0113  71.4744  71.4744
    71.5372  71.5372  72.1040  72.1040  72.1795  72.1795  72.6503  72.6503
    72.7524  72.7524  73.1864  73.1864  73.3106  73.3106  73.3956  73.3956
    73.7810  73.7810  73.8057  73.8057  74.1419  74.1419  74.6404  74.6404
    74.9664  74.9664  74.9862  74.9862  75.0007  75.0007  75.4689  75.4689
    75.4844  75.4844  76.0016  76.0016  76.1888  76.1888  76.7261  76.7261
    76.8000  76.8000  76.8738  76.8738  77.2972  77.2972  77.4225  77.4225
    77.5924  77.5924  77.8966  77.8966  78.2761  78.2761  78.3262  78.3262
    78.4348  78.4348  78.6517  78.6517  78.8275  78.8275

          k = 0.0000 0.5774 0.0000 (  4000 PWs)   bands (ev):

   -66.6935 -66.6935 -42.5900 -42.5900 -40.2059 -40.2059 -40.0120 -40.0120
   -18.1452 -18.1452 -17.9867 -17.9867 -11.7272 -11.7272 -10.7472 -10.7472
   -10.0057 -10.0057  -9.0790  -9.0790  -7.8260  -7.8260  -6.8608  -6.8608
    -6.5461  -6.5461  -3.6346  -3.6346  -3.1162  -3.1162  -2.0013  -2.0013
    -1.5665  -1.5665   0.3285   0.3285   2.0770   2.0770   2.4085   2.4085
     3.1910   3.1910   3.9865   3.9865   4.9796   4.9796   5.5108   5.5108
     5.8234   5.8234   6.7459   6.7459   7.3573   7.3573   9.8679   9.8679
     9.9897   9.9897  10.1970  10.1970  10.9696  10.9696  11.7358  11.7358
    11.9353  11.9353  12.5363  12.5363  12.8971  12.8971  13.8790  13.8790
    14.0772  14.0772  14.1224  14.1224  14.3527  14.3527  14.9751  14.9751
    15.3804  15.3804  15.9102  15.9102  17.4220  17.4220  17.6782  17.6782
    17.7681  17.7681  18.5349  18.5349  18.5657  18.5657  19.2526  19.2526
    19.3627  19.3627  19.4507  19.4507  19.6653  19.6653  20.6305  20.6305
    21.5600  21.5600  21.9992  21.9992  22.7811  22.7811  22.7866  22.7866
    22.9379  22.9379  23.4771  23.4771  24.1362  24.1362  24.2118  24.2118
    25.3579  25.3579  25.6252  25.6252  26.2818  26.2818  26.7805  26.7805
    26.9241  26.9241  27.3801  27.3801  27.4962  27.4962  28.6095  28.6095
    28.6565  28.6565  28.9433  28.9433  28.9751  28.9751  29.0752  29.0752
    29.7855  29.7855  30.1106  30.1106  30.9934  30.9934  31.1503  31.1503
    31.4207  31.4207  31.6942  31.6942  32.4546  32.4546  32.7016  32.7016
    32.9144  32.9144  33.0622  33.0622  33.3755  33.3755  33.7810  33.7810
    34.0597  34.0597  34.1140  34.1140  34.5945  34.5945  35.1349  35.1349
    35.1737  35.1737  35.3672  35.3672  35.9561  35.9561  36.1662  36.1662
    36.3180  36.3180  37.1240  37.1240  37.2509  37.2509  37.4934  37.4934
    37.5483  37.5483  38.0149  38.0149  38.5363  38.5363  38.5402  38.5402
    39.2522  39.2522  39.4235  39.4235  40.4484  40.4484  40.8333  40.8333
    41.0030  41.0030  41.0051  41.0051  41.3208  41.3208  41.5115  41.5115
    41.6624  41.6624  41.7234  41.7234  42.0535  42.0535  42.5508  42.5508
    42.7313  42.7313  43.2418  43.2418  43.4484  43.4484  43.7878  43.7878
    43.9645  43.9645  44.1085  44.1085  44.1189  44.1189  45.3932  45.3932
    45.5285  45.5285  46.0109  46.0109  46.3512  46.3512  46.3793  46.3793
    46.9520  46.9520  47.0875  47.0875  47.2700  47.2700  47.4490  47.4490
    47.5174  47.5174  47.6275  47.6275  47.9993  47.9993  48.2322  48.2322
    48.7713  48.7713  49.4570  49.4570  49.5160  49.5160  49.7021  49.7021
    50.0432  50.0432  50.0503  50.0503  50.1709  50.1709  50.4266  50.4266
    50.4311  50.4311  50.6792  50.6792  50.7751  50.7751  50.7835  50.7835
    51.8457  51.8457  52.1102  52.1102  52.3829  52.3829  52.6411  52.6411
    52.8686  52.8686  53.2299  53.2299  53.5245  53.5245  53.7469  53.7469
    53.7506  53.7506  53.8623  53.8623  54.7192  54.7192  54.9411  54.9411
    54.9576  54.9576  55.1561  55.1561  55.3403  55.3403  55.8326  55.8326
    56.3396  56.3396  56.5348  56.5348  56.6353  56.6353  58.0082  58.0082
    58.0891  58.0891  58.1310  58.1310  58.8352  58.8352  58.8923  58.8923
    59.1688  59.1688  59.2514  59.2514  59.4096  59.4096  59.5618  59.5618
    59.6190  59.6190  59.7170  59.7170  60.2252  60.2252  60.4030  60.4030
    60.4676  60.4676  60.8722  60.8722  61.0382  61.0382  61.0863  61.0863
    61.1195  61.1195  61.7180  61.7180  62.0851  62.0851  62.4052  62.4052
    62.6957  62.6957  63.0021  63.0021  63.0099  63.0099  63.5201  63.5201
    63.7453  63.7453  63.8112  63.8112  64.1859  64.1859  64.2193  64.2193
    64.4294  64.4294  64.9579  64.9579  65.2953  65.2953  65.3509  65.3509
    66.0185  66.0185  66.2851  66.2851  66.3565  66.3565  66.5621  66.5621
    66.7478  66.7478  66.8465  66.8465  67.2174  67.2174  67.5267  67.5267
    67.7662  67.7662  67.9370  67.9370  68.5786  68.5786  68.7429  68.7429
    68.9038  68.9038  68.9850  68.9850  69.4442  69.4442  69.4890  69.4890
    69.5218  69.5218  69.8801  69.8801  70.1264  70.1264  70.5645  70.5645
    70.7680  70.7680  70.8590  70.8590  71.0424  71.0424  71.1127  71.1127
    71.2940  71.2940  71.5929  71.5929  71.6034  71.6034  71.9576  71.9576
    72.2810  72.2810  72.9287  72.9287  73.3008  73.3008  73.4181  73.4181
    73.5343  73.5343  73.9981  73.9981  74.0488  74.0488  74.1919  74.1919
    74.2733  74.2733  74.4392  74.4392  74.9600  74.9600  75.0919  75.0919
    75.5461  75.5461  76.1204  76.1204  76.2010  76.2010  76.4102  76.4102
    76.6426  76.6426  77.5522  77.5522  77.6918  77.6918  77.7912  77.7912
    78.0586  78.0586  78.0673  78.0673  78.1160  78.1160  78.5760  78.5760
    78.8161  78.8161  78.9650  78.9650  79.5207  79.5222

          k = 0.0000 0.6736 0.0000 (  4004 PWs)   bands (ev):

   -66.6962 -66.6962 -42.5815 -42.5815 -40.1897 -40.1897 -40.0108 -40.0108
   -18.3101 -18.3101 -18.0483 -18.0483 -11.5640 -11.5640 -10.5806 -10.5806
    -9.9269  -9.9269  -8.9964  -8.9964  -7.7640  -7.7640  -6.9610  -6.9610
    -6.7134  -6.7134  -3.6692  -3.6692  -3.2763  -3.2763  -2.1172  -2.1172
    -1.6171  -1.6171   0.8468   0.8468   2.0022   2.0022   2.1724   2.1724
     3.1613   3.1613   4.0746   4.0746   5.0339   5.0339   5.6014   5.6014
     5.8476   5.8476   7.3984   7.3984   7.7416   7.7416   9.5187   9.5187
     9.5325   9.5325   9.9486   9.9486  10.7060  10.7060  11.1089  11.1089
    11.3675  11.3675  12.3537  12.3537  12.9614  12.9614  13.5295  13.5295
    14.1807  14.1807  14.4734  14.4734  14.5498  14.5498  15.4598  15.4598
    15.6757  15.6757  15.9989  15.9989  17.6085  17.6085  17.7370  17.7370
    17.7503  17.7503  18.2726  18.2726  19.2521  19.2521  19.2773  19.2773
    19.6172  19.6172  20.0014  20.0014  20.3859  20.3859  21.4576  21.4576
    21.5013  21.5013  21.6889  21.6889  22.0602  22.0602  22.9275  22.9275
    22.9629  22.9629  23.0593  23.0593  23.4429  23.4429  24.3245  24.3245
    24.6218  24.6218  25.6180  25.6180  26.1580  26.1580  26.4801  26.4801
    26.8804  26.8804  26.9829  26.9829  27.7995  27.7995  28.4056  28.4056
    28.7171  28.7171  28.9444  28.9444  29.1359  29.1359  29.3664  29.3664
    29.6735  29.6735  30.2892  30.2892  30.4669  30.4669  31.0927  31.0927
    31.7192  31.7192  31.7935  31.7935  31.9193  31.9193  32.2579  32.2579
    32.4270  32.4270  33.0534  33.0534  33.5013  33.5013  33.8334  33.8334
    34.0100  34.0100  34.0420  34.0420  34.9313  34.9313  35.2458  35.2458
    35.2585  35.2585  35.3248  35.3248  35.5189  35.5189  36.4607  36.4607
    36.8014  36.8014  37.3911  37.3911  37.7094  37.7094  38.0349  38.0349
    38.1876  38.1876  38.3314  38.3314  38.3695  38.3695  38.7212  38.7212
    39.0548  39.0548  39.0915  39.0915  39.8000  39.8000  39.9368  39.9368
    40.4659  40.4659  40.5179  40.5179  40.7333  40.7333  41.2147  41.2147
    41.4824  41.4824  42.0916  42.0916  42.2968  42.2968  42.3541  42.3541
    42.8094  42.8094  43.3180  43.3180  43.4916  43.4916  43.5448  43.5448
    43.9163  43.9163  44.6972  44.6972  44.7785  44.7785  45.1281  45.1281
    45.4055  45.4055  45.4401  45.4401  46.2774  46.2774  46.2943  46.2943
    46.6667  46.6667  46.7493  46.7493  46.9737  46.9737  47.4075  47.4075
    47.4395  47.4395  47.5542  47.5542  47.9138  47.9138  48.7074  48.7074
    48.7307  48.7307  49.1448  49.1448  49.2038  49.2038  49.6357  49.6357
    49.8244  49.8244  50.2126  50.2126  50.5202  50.5202  50.9438  50.9438
    51.2330  51.2330  51.3750  51.3750  51.5522  51.5522  51.5637  51.5637
    51.8557  51.8557  52.0672  52.0672  52.3086  52.3086  52.4593  52.4593
    52.7097  52.7097  52.8203  52.8203  53.3244  53.3244  53.7961  53.7961
    53.8704  53.8704  54.0864  54.0864  54.5988  54.5988  54.6592  54.6592
    55.5674  55.5674  55.7513  55.7513  56.1163  56.1163  56.3859  56.3859
    56.6891  56.6891  56.7176  56.7176  57.0222  57.0222  57.3505  57.3505
    57.4245  57.4245  58.0999  58.0999  58.2066  58.2066  58.4422  58.4422
    58.6093  58.6093  58.8388  58.8388  59.1163  59.1163  59.2077  59.2077
    59.6733  59.6733  59.7022  59.7022  59.7278  59.7278  60.2338  60.2338
    60.7736  60.7736  60.8966  60.8966  60.9741  60.9741  61.8390  61.8390
    61.8629  61.8629  62.1996  62.1996  63.0791  63.0791  63.1999  63.1999
    63.2339  63.2339  63.3010  63.3010  63.3200  63.3200  63.8589  63.8589
    63.8739  63.8739  64.2053  64.2053  64.2435  64.2435  64.4430  64.4430
    64.7555  64.7555  65.1128  65.1128  65.2198  65.2198  65.6845  65.6845
    65.7060  65.7060  66.1256  66.1256  66.3662  66.3662  66.8827  66.8827
    67.0315  67.0315  67.0514  67.0514  67.3858  67.3858  67.4275  67.4275
    67.6660  67.6660  67.9880  67.9880  68.1161  68.1161  68.3316  68.3316
    68.5794  68.5794  68.8251  68.8251  69.2010  69.2010  69.4831  69.4831
    69.8207  69.8207  69.9540  69.9540  69.9987  69.9987  70.2550  70.2550
    70.7578  70.7578  70.9511  70.9511  71.0113  71.0113  71.4744  71.4744
    71.5372  71.5372  72.1040  72.1040  72.1795  72.1795  72.6503  72.6503
    72.7524  72.7524  73.1864  73.1864  73.3106  73.3106  73.3956  73.3956
    73.7810  73.7810  73.8057  73.8057  74.1419  74.1419  74.6404  74.6404
    74.9664  74.9664  74.9862  74.9862  75.0007  75.0007  75.4689  75.4689
    75.4844  75.4844  76.0016  76.0016  76.1888  76.1888  76.7261  76.7261
    76.8000  76.8000  76.8738  76.8738  77.2972  77.2972  77.4225  77.4225
    77.5924  77.5924  77.8966  77.8966  78.2761  78.2761  78.3262  78.3262
    78.4348  78.4348  78.6517  78.6517  78.8275  78.8275

          k = 0.0000 0.7698 0.0000 (  4008 PWs)   bands (ev):

   -66.7035 -66.7035 -42.5587 -42.5587 -40.1464 -40.1464 -40.0051 -40.0051
   -18.7205 -18.7205 -18.2068 -18.2068 -11.1824 -11.1824 -10.1312 -10.1312
    -9.8225  -9.8225  -8.7567  -8.7567  -7.5724  -7.5724  -7.2471  -7.2471
    -6.8944  -6.8944  -3.6844  -3.6844  -3.5543  -3.5543  -2.4767  -2.4767
    -1.7830  -1.7830   1.6335   1.6335   1.9261   1.9261   2.0740   2.0740
     3.0193   3.0193   3.8788   3.8788   5.4721   5.4721   6.0172   6.0172
     6.6621   6.6621   7.1834   7.1834   7.9515   7.9515   8.7368   8.7368
     9.5252   9.5252   9.6634   9.6634   9.7160   9.7160  10.3491  10.3491
    10.4996  10.4996  12.0156  12.0156  13.4933  13.4933  13.6840  13.6840
    14.6695  14.6695  14.6977  14.6977  15.0142  15.0142  15.8996  15.8996
    16.1977  16.1977  16.2382  16.2382  17.0695  17.0695  17.9866  17.9866
    18.0281  18.0281  18.0863  18.0863  19.4482  19.4482  19.5915  19.5915
    19.9236  19.9236  20.5714  20.5714  20.9450  20.9450  21.3330  21.3330
    21.6128  21.6128  21.9547  21.9547  22.5067  22.5067  22.7048  22.7048
    22.9794  22.9794  23.0287  23.0287  23.9869  23.9869  24.3479  24.3479
    24.8239  24.8239  25.1281  25.1281  25.4696  25.4696  26.0471  26.0471
    26.6655  26.6655  27.0373  27.0373  27.1649  27.1649  28.1805  28.1805
    28.4735  28.4735  28.6165  28.6165  28.7551  28.7551  29.4068  29.4068
    29.4856  29.4856  29.6031  29.6031  30.2041  30.2041  30.3169  30.3169
    30.8214  30.8214  31.7684  31.7684  32.1251  32.1251  32.4298  32.4298
    32.8763  32.8763  32.9380  32.9380  33.3832  33.3832  33.5485  33.5485
    33.7953  33.7953  34.3774  34.3774  34.5333  34.5333  35.2323  35.2323
    35.3471  35.3471  35.3954  35.3954  35.9288  35.9288  36.1124  36.1124
    36.4469  36.4469  36.5896  36.5896  37.1452  37.1452  37.3620  37.3620
    37.6277  37.6277  38.0375  38.0375  38.4466  38.4466  39.1799  39.1799
    39.3914  39.3914  39.4624  39.4624  39.6128  39.6128  40.2294  40.2294
    40.3267  40.3267  40.8678  40.8678  41.6414  41.6414  41.6871  41.6871
    41.8343  41.8343  42.1977  42.1977  42.4134  42.4134  42.4741  42.4741
    42.6352  42.6352  43.0889  43.0889  43.4355  43.4355  43.5142  43.5142
    44.0399  44.0399  44.3110  44.3110  44.3936  44.3936  44.7952  44.7952
    45.1941  45.1941  45.2248  45.2248  45.4255  45.4255  45.4679  45.4679
    45.8094  45.8094  46.0027  46.0027  47.0004  47.0004  47.2053  47.2053
    47.9572  47.9572  48.0302  48.0302  48.1691  48.1691  48.8414  48.8414
    48.9100  48.9100  49.3216  49.3216  49.3564  49.3564  49.3797  49.3797
    49.7471  49.7471  49.8698  49.8698  50.2233  50.2233  50.6372  50.6372
    50.8541  50.8541  51.0734  51.0734  51.3833  51.3833  52.2866  52.2866
    52.5515  52.5515  52.5826  52.5826  52.8733  52.8733  52.9602  52.9602
    53.3429  53.3429  53.7585  53.7585  54.3036  54.3036  54.4987  54.4987
    54.5999  54.5999  54.6244  54.6244  54.8529  54.8529  55.2315  55.2315
    55.6963  55.6963  56.0186  56.0186  56.0275  56.0275  56.0556  56.0556
    56.2592  56.2592  56.5905  56.5905  57.2366  57.2366  57.3484  57.3484
    57.5608  57.5608  57.8353  57.8353  58.6468  58.6468  59.0181  59.0181
    59.3570  59.3570  59.3948  59.3948  59.4488  59.4488  59.6569  59.6569
    59.9096  59.9096  60.1573  60.1573  60.4718  60.4718  60.8344  60.8344
    60.9954  60.9954  61.4200  61.4200  61.5196  61.5196  61.7674  61.7674
    62.2505  62.2505  62.3129  62.3129  62.3218  62.3218  62.3991  62.3991
    63.0207  63.0207  63.3112  63.3112  63.5806  63.5806  63.6607  63.6607
    63.7394  63.7394  63.7726  63.7726  64.4236  64.4236  64.4997  64.4997
    65.1516  65.1516  65.4450  65.4450  66.0065  66.0065  66.3834  66.3834
    66.4955  66.4955  66.5319  66.5319  66.7590  66.7590  66.8295  66.8295
    67.6025  67.6025  67.8512  67.8512  68.0760  68.0760  68.1636  68.1636
    68.2318  68.2318  68.5709  68.5709  68.5931  68.5931  68.8628  68.8628
    69.2605  69.2605  69.7703  69.7703  69.8958  69.8958  70.0131  70.0131
    70.3752  70.3752  70.4005  70.4005  70.4389  70.4389  70.7770  70.7770
    70.7869  70.7869  70.9992  70.9992  71.4435  71.4435  71.7443  71.7443
    71.8199  71.8199  72.1293  72.1293  72.3390  72.3390  72.5532  72.5532
    72.8271  72.8271  73.0901  73.0901  73.4217  73.4217  73.4634  73.4634
    73.6013  73.6013  73.6938  73.6938  74.2229  74.2229  74.7202  74.7202
    74.7433  74.7433  75.0469  75.0469  75.1974  75.1974  75.4396  75.4396
    75.5136  75.5136  75.6208  75.6208  76.0727  76.0727  76.6829  76.6829
    76.9016  76.9016  76.9605  76.9605  77.0623  77.0623  77.2826  77.2826
    77.6158  77.6158  77.7217  77.7217  77.8963  77.8963  77.9733  77.9733
    78.3202  78.3202  78.4705  78.4705  78.8417  78.8417

          k = 0.0000 0.8660 0.0000 (  3986 PWs)   bands (ev):

   -66.7135 -66.7135 -42.5288 -42.5288 -40.0945 -40.0945 -39.9874 -39.9874
   -19.2130 -19.2130 -18.4038 -18.4038 -10.9324 -10.9324  -9.7299  -9.7299
    -9.5137  -9.5137  -8.3871  -8.3871  -7.6742  -7.6742  -7.2580  -7.2580
    -6.6547  -6.6547  -3.7478  -3.7478  -3.5268  -3.5268  -2.9649  -2.9649
    -2.0880  -2.0880   1.2313   1.2313   1.5347   1.5347   2.8096   2.8096
     3.4895   3.4895   3.7409   3.7409   5.9762   5.9762   6.0416   6.0416
     6.6215   6.6215   7.1426   7.1426   7.2390   7.2390   7.9427   7.9427
     8.7071   8.7071   8.7687   8.7687   9.4756   9.4756  11.6021  11.6021
    11.8105  11.8105  11.9181  11.9181  12.9713  12.9713  14.0045  14.0045
    14.8708  14.8708  15.2101  15.2101  15.6520  15.6520  16.1346  16.1346
    16.4883  16.4883  16.5548  16.5548  16.9014  16.9014  17.5056  17.5056
    18.0480  18.0480  18.5427  18.5427  18.6123  18.6123  18.9598  18.9598
    20.0454  20.0454  20.2343  20.2343  20.9379  20.9379  21.2746  21.2746
    21.3287  21.3287  22.1665  22.1665  23.3148  23.3148  23.7531  23.7531
    24.1401  24.1401  24.5417  24.5417  24.6997  24.6997  24.9523  24.9523
    25.0720  25.0720  25.3542  25.3542  25.5814  25.5814  25.6508  25.6508
    26.0352  26.0352  26.4123  26.4123  27.1114  27.1114  27.4467  27.4467
    27.5982  27.5982  28.0022  28.0022  28.1242  28.1242  29.3772  29.3772
    29.6940  29.6940  29.8135  29.8135  30.2558  30.2558  30.2972  30.2972
    30.3455  30.3455  30.7507  30.7507  30.7665  30.7665  31.5241  31.5241
    32.2637  32.2637  32.4233  32.4233  32.8968  32.8968  33.0123  33.0123
    33.5674  33.5674  33.8832  33.8832  34.1404  34.1404  34.6337  34.6337
    35.0885  35.0885  35.1912  35.1912  35.3669  35.3669  35.9696  35.9696
    36.2194  36.2194  36.2597  36.2597  37.3943  37.3943  37.6520  37.6520
    37.6978  37.6978  37.8829  37.8829  38.0464  38.0464  39.0881  39.0881
    39.1217  39.1217  39.3225  39.3225  40.1102  40.1102  40.2910  40.2910
    40.6478  40.6478  40.8197  40.8197  41.3219  41.3219  41.5815  41.5815
    41.6560  41.6560  41.8985  41.8985  42.4492  42.4492  42.5628  42.5628
    42.6581  42.6581  43.1421  43.1421  43.2142  43.2142  43.3104  43.3104
    44.2617  44.2617  44.3150  44.3150  44.6775  44.6775  44.8020  44.8020
    45.1587  45.1587  45.6503  45.6503  45.7272  45.7272  46.0068  46.0068
    46.2675  46.2675  46.4950  46.4950  47.3558  47.3558  47.3760  47.3760
    47.5321  47.5321  47.6795  47.6795  47.7887  47.7887  47.8652  47.8652
    48.3284  48.3284  49.1734  49.1734  49.4260  49.4260  49.7232  49.7232
    49.8596  49.8596  50.2294  50.2294  50.3141  50.3141  50.8897  50.8897
    51.3539  51.3539  51.4426  51.4426  51.8265  51.8265  52.4355  52.4355
    52.7251  52.7251  52.8705  52.8705  53.0520  53.0520  53.1915  53.1915
    53.3772  53.3772  53.8351  53.8351  54.1943  54.1943  54.2304  54.2304
    54.3663  54.3663  54.8523  54.8523  54.9136  54.9136  55.5525  55.5525
    56.0699  56.0699  56.0984  56.0984  56.7019  56.7019  56.8058  56.8058
    57.0714  57.0714  57.2643  57.2643  58.0850  58.0850  58.4196  58.4196
    58.4203  58.4203  58.7988  58.7988  58.8089  58.8089  59.2345  59.2345
    59.4341  59.4341  59.7547  59.7547  60.1851  60.1851  60.3421  60.3421
    60.5876  60.5876  60.8995  60.8995  61.1116  61.1116  61.3165  61.3165
    61.4400  61.4400  61.7580  61.7580  61.8501  61.8501  61.9534  61.9534
    62.2393  62.2393  62.2805  62.2805  62.8655  62.8655  62.9232  62.9232
    63.3349  63.3349  64.1613  64.1613  64.2034  64.2034  64.2628  64.2628
    64.2749  64.2749  64.7361  64.7361  65.1409  65.1409  65.3338  65.3338
    65.7500  65.7500  65.9986  65.9986  66.4561  66.4561  66.5216  66.5216
    66.8855  66.8855  67.2167  67.2167  67.2950  67.2950  67.3930  67.3930
    67.4762  67.4762  67.7824  67.7824  67.8475  67.8475  67.9430  67.9430
    68.4902  68.4902  68.5358  68.5358  69.0374  69.0374  69.2764  69.2764
    69.4199  69.4199  69.4496  69.4496  69.8938  69.8938  69.9995  69.9995
    70.7832  70.7832  70.8590  70.8590  71.0322  71.0322  71.1210  71.1210
    71.5101  71.5101  71.5972  71.5972  71.7999  71.7999  71.8058  71.8058
    72.1045  72.1045  72.2457  72.2457  72.6542  72.6542  72.8479  72.8479
    73.0353  73.0353  73.2953  73.2953  73.7444  73.7444  73.7839  73.7839
    73.7876  73.7876  74.0597  74.0597  74.0873  74.0873  74.2870  74.2870
    74.5316  74.5316  75.2200  75.2200  75.2573  75.2573  75.2912  75.2912
    75.3671  75.3671  75.7564  75.7564  76.2698  76.2698  76.3102  76.3102
    76.3323  76.3323  76.5308  76.5308  76.8806  76.8806  77.1966  77.1966
    77.6366  77.6366  77.6889  77.6889  77.8642  77.8642  77.9794  77.9794
    78.0858  78.0858  78.3176  78.3176  78.5542  78.5542

          k = 0.0000 0.9623 0.0000 (  3983 PWs)   bands (ev):

   -66.7235 -66.7235 -42.5004 -42.5004 -40.0614 -40.0614 -39.9479 -39.9479
   -19.6515 -19.6515 -18.5829 -18.5829 -11.1459 -11.1459  -9.2768  -9.2768
    -8.8516  -8.8516  -8.0999  -8.0999  -7.9443  -7.9443  -7.0043  -7.0043
    -6.2296  -6.2296  -3.6121  -3.6121  -3.3007  -3.3007  -3.2510  -3.2510
    -2.5088  -2.5088   0.7588   0.7588   1.0202   1.0202   2.1509   2.1509
     4.0394   4.0394   4.2999   4.2999   5.5542   5.5542   5.9125   5.9125
     6.3331   6.3331   6.7178   6.7178   6.8470   6.8470   7.4195   7.4195
     8.7736   8.7736   9.4341   9.4341   9.8578   9.8578  11.1083  11.1083
    11.9678  11.9678  13.0256  13.0256  13.7300  13.7300  13.9967  13.9967
    14.4700  14.4700  14.9584  14.9584  15.6238  15.6238  16.0918  16.0918
    16.8841  16.8841  16.9101  16.9101  17.1724  17.1724  17.6822  17.6822
    18.4750  18.4750  18.5418  18.5418  19.1970  19.1970  19.2681  19.2681
    19.4409  19.4409  20.0885  20.0885  21.2684  21.2684  21.5456  21.5456
    22.1163  22.1163  22.3229  22.3229  23.3792  23.3792  23.4935  23.4935
    23.5917  23.5917  24.1017  24.1017  24.4893  24.4893  24.9447  24.9447
    24.9636  24.9636  25.3422  25.3422  25.5854  25.5854  26.2934  26.2934
    26.2999  26.2999  26.4747  26.4747  27.1379  27.1379  27.8629  27.8629
    27.9200  27.9200  28.1130  28.1130  28.4054  28.4054  28.4325  28.4325
    28.6188  28.6188  29.0332  29.0332  29.7209  29.7209  30.2270  30.2270
    30.4345  30.4345  30.9030  30.9030  31.1358  31.1358  31.3600  31.3600
    31.7311  31.7311  32.3386  32.3386  32.5800  32.5800  32.7654  32.7654
    32.9281  32.9281  33.1232  33.1232  33.2615  33.2615  34.3866  34.3866
    34.4231  34.4231  34.7943  34.7943  35.1625  35.1625  35.5493  35.5493
    35.9523  35.9523  36.4252  36.4252  36.5690  36.5690  37.0071  37.0071
    37.2605  37.2605  37.5584  37.5584  37.9271  37.9271  38.1952  38.1952
    38.7716  38.7716  38.8249  38.8249  39.8721  39.8721  40.1322  40.1322
    40.2395  40.2395  40.7311  40.7311  41.0601  41.0601  41.5435  41.5435
    41.7398  41.7398  41.8263  41.8263  42.2737  42.2737  42.4809  42.4809
    43.1104  43.1104  43.1530  43.1530  43.3287  43.3287  43.3593  43.3593
    43.7624  43.7624  43.7945  43.7945  44.5842  44.5842  44.6800  44.6800
    45.0768  45.0768  45.2075  45.2075  45.4751  45.4751  46.2664  46.2664
    46.5271  46.5271  46.7314  46.7314  47.4046  47.4046  47.5644  47.5644
    47.6732  47.6732  47.7037  47.7037  48.2615  48.2615  48.7699  48.7699
    49.1275  49.1275  49.8070  49.8070  49.9125  49.9125  50.5525  50.5525
    50.8225  50.8225  51.0385  51.0385  51.0520  51.0520  51.4095  51.4095
    51.4154  51.4154  51.5281  51.5281  51.6244  51.6244  52.3489  52.3489
    52.8158  52.8158  53.2804  53.2804  53.3723  53.3723  53.4736  53.4736
    53.5123  53.5123  54.4092  54.4092  54.6039  54.6039  54.7776  54.7776
    55.3117  55.3117  55.4028  55.4028  55.4049  55.4049  55.8774  55.8774
    55.9247  55.9247  56.7183  56.7183  57.0102  57.0102  57.1188  57.1188
    57.7420  57.7420  57.9977  57.9977  58.0326  58.0326  58.5136  58.5136
    58.6967  58.6967  58.9367  58.9367  59.5927  59.5927  59.9371  59.9371
    60.2620  60.2620  60.2986  60.2986  60.5372  60.5372  60.5661  60.5661
    60.7526  60.7526  61.0722  61.0722  61.1178  61.1178  61.4893  61.4893
    61.7764  61.7764  61.9595  61.9595  62.3673  62.3673  62.7154  62.7154
    63.4351  63.4351  63.5507  63.5507  63.7721  63.7721  63.8620  63.8620
    64.0065  64.0065  64.0752  64.0752  64.7079  64.7079  64.7542  64.7542
    65.0305  65.0305  65.4721  65.4721  65.6431  65.6431  65.7960  65.7960
    66.1187  66.1187  66.1229  66.1229  66.6650  66.6650  66.7345  66.7345
    66.7904  66.7904  67.2245  67.2245  67.3894  67.3894  67.6015  67.6015
    67.7229  67.7229  68.0302  68.0302  68.1184  68.1184  68.2759  68.2759
    68.4209  68.4209  69.1115  69.1115  69.2033  69.2033  69.2697  69.2697
    69.4272  69.4272  69.5796  69.5796  69.9078  69.9078  70.2997  70.2997
    70.5406  70.5406  70.7402  70.7402  70.7934  70.7934  70.8726  70.8726
    71.2673  71.2673  71.4875  71.4875  71.6462  71.6462  71.6611  71.6611
    72.1766  72.1766  72.3655  72.3655  72.4606  72.4606  72.4870  72.4870
    72.5426  72.5426  72.8034  72.8034  73.3280  73.3280  73.3775  73.3775
    73.6755  73.6755  73.7096  73.7096  74.1234  74.1234  74.4669  74.4669
    74.8934  74.8934  74.9688  74.9688  75.0414  75.0414  75.2163  75.2163
    75.3873  75.3873  75.5642  75.5642  75.7266  75.7266  76.1526  76.1526
    76.4061  76.4061  76.5924  76.5924  76.7755  76.7755  77.0306  77.0306
    77.1077  77.1077  77.1809  77.1809  77.7783  77.7783  77.9568  77.9568
    78.2769  78.2769  78.4796  78.4796  78.6478  78.6478

          k = 0.0000 1.0585 0.0000 (  3957 PWs)   bands (ev):

   -66.7308 -66.7308 -42.4804 -42.4804 -40.0490 -40.0490 -39.9052 -39.9052
   -19.9476 -19.9476 -18.7048 -18.7048 -11.4454 -11.4454  -8.7475  -8.7475
    -8.4028  -8.4028  -8.1999  -8.1999  -7.5555  -7.5555  -7.0816  -7.0816
    -6.0032  -6.0032  -3.2499  -3.2499  -3.1548  -3.1548  -2.9954  -2.9954
    -2.9081  -2.9081   0.2942   0.2942   0.6559   0.6559   1.1320   1.1320
     3.7254   3.7254   4.6301   4.6301   5.4449   5.4449   5.6759   5.6759
     6.1862   6.1862   6.5809   6.5809   7.1810   7.1810   7.2141   7.2141
     9.7384   9.7384  10.3263  10.3263  10.3831  10.3831  10.6734  10.6734
    11.1599  11.1599  11.3844  11.3844  13.3091  13.3091  13.7366  13.7366
    14.8979  14.8979  15.3604  15.3604  16.5100  16.5100  16.6384  16.6384
    17.3581  17.3581  17.4246  17.4246  18.0560  18.0560  18.4686  18.4686
    18.6323  18.6323  18.9318  18.9318  18.9571  18.9571  19.5561  19.5561
    20.8345  20.8345  20.9736  20.9736  21.1687  21.1687  21.6264  21.6264
    21.9607  21.9607  22.2243  22.2243  22.6310  22.6310  22.7413  22.7413
    22.9286  22.9286  23.1894  23.1894  24.1551  24.1551  24.2383  24.2383
    24.7304  24.7304  24.9381  24.9381  25.3950  25.3950  26.0048  26.0048
    26.0295  26.0295  26.2737  26.2737  27.0262  27.0262  27.2806  27.2806
    27.3419  27.3419  27.4437  27.4437  28.4039  28.4039  28.5394  28.5394
    29.3783  29.3783  29.8951  29.8951  30.3290  30.3290  30.3520  30.3520
    30.7628  30.7628  30.8476  30.8476  31.2458  31.2458  31.3293  31.3293
    31.3804  31.3804  32.4696  32.4696  32.8328  32.8328  33.1393  33.1393
    33.2621  33.2621  33.4863  33.4863  33.4917  33.4917  33.8371  33.8371
    34.0211  34.0211  34.3012  34.3012  35.1887  35.1887  35.7589  35.7589
    35.8079  35.8079  35.8646  35.8646  35.9859  35.9859  36.1085  36.1085
    37.3344  37.3344  37.5002  37.5002  37.6175  37.6175  37.9095  37.9095
    37.9877  37.9877  38.8165  38.8165  38.8761  38.8761  39.5191  39.5191
    39.8874  39.8874  40.0443  40.0443  40.3633  40.3633  40.5282  40.5282
    41.0483  41.0483  41.1908  41.1908  41.9904  41.9904  42.0962  42.0962
    42.4635  42.4635  42.7189  42.7189  42.8941  42.8941  43.6927  43.6927
    43.8069  43.8069  43.8771  43.8771  44.4810  44.4810  44.4931  44.4931
    44.5229  44.5229  45.3886  45.3886  45.7253  45.7253  46.1541  46.1541
    46.2003  46.2003  47.0828  47.0828  47.2480  47.2480  47.2881  47.2881
    47.6570  47.6570  48.9654  48.9654  49.2647  49.2647  49.3331  49.3331
    49.3582  49.3582  49.9308  49.9308  50.0151  50.0151  50.5937  50.5937
    51.0053  51.0053  51.1593  51.1593  51.3982  51.3982  52.3163  52.3163
    53.0237  53.0237  53.2053  53.2053  53.2059  53.2059  53.3100  53.3100
    53.4813  53.4813  53.8133  53.8133  53.8442  53.8442  54.2241  54.2241
    54.5915  54.5915  54.7782  54.7782  55.0160  55.0160  55.6703  55.6703
    56.1851  56.1851  56.3107  56.3107  56.5329  56.5329  56.6437  56.6437
    56.7249  56.7249  57.2358  57.2358  57.3213  57.3213  57.3845  57.3845
    57.8600  57.8600  58.2294  58.2294  58.7440  58.7440  58.7608  58.7608
    58.8375  58.8375  59.0335  59.0335  59.7487  59.7487  60.0092  60.0092
    60.1993  60.1993  60.2523  60.2523  60.4346  60.4346  61.0202  61.0202
    61.2173  61.2173  61.3548  61.3548  61.3735  61.3735  61.8050  61.8050
    62.0936  62.0936  62.4360  62.4360  62.5733  62.5733  62.8209  62.8209
    62.9064  62.9064  62.9381  62.9381  63.3607  63.3607  63.3710  63.3710
    63.9675  63.9675  64.1185  64.1185  64.3252  64.3252  64.5471  64.5471
    64.5892  64.5892  65.2214  65.2214  65.2654  65.2654  65.5074  65.5074
    65.9016  65.9016  65.9522  65.9522  66.2997  66.2997  66.5499  66.5499
    66.7277  66.7277  66.7765  66.7765  67.2353  67.2353  67.6596  67.6596
    67.6692  67.6692  67.8106  67.8106  67.9941  67.9941  68.3239  68.3239
    68.6019  68.6019  68.6377  68.6377  68.6666  68.6666  69.1062  69.1062
    69.2787  69.2787  69.5822  69.5822  70.1121  70.1121  70.2713  70.2713
    70.3711  70.3711  70.4181  70.4181  70.9402  70.9402  70.9926  70.9926
    71.5625  71.5625  71.7366  71.7366  71.7596  71.7596  71.9579  71.9579
    72.2239  72.2239  72.5258  72.5258  72.6188  72.6188  72.9563  72.9563
    73.6769  73.6769  73.7568  73.7568  73.8346  73.8346  73.9839  73.9839
    74.0184  74.0184  74.3104  74.3104  74.5902  74.5902  74.6218  74.6218
    74.6307  74.6307  74.6703  74.6703  74.8354  74.8354  75.4038  75.4038
    75.8757  75.8757  76.0072  76.0072  76.1362  76.1362  76.2220  76.2220
    76.2752  76.2752  76.4781  76.4781  76.9645  76.9645  77.2476  77.2476
    77.4992  77.4992  77.7864  77.7864  77.8564  77.8564  78.0837  78.0837
    78.3142  78.3142  78.5140  78.5140  78.8760  78.8763

          k = 0.0833 0.1443 0.0000 (  3968 PWs)   bands (ev):

   -66.7258 -66.7258 -42.4945 -42.4933 -40.0568 -40.0560 -39.9369 -39.9343
   -19.7484 -19.7463 -18.6224 -18.6222 -11.2336 -11.2309  -9.1256  -9.1140
    -8.6350  -8.6344  -8.2158  -8.1902  -7.9450  -7.9387  -6.9079  -6.8825
    -6.1437  -6.1386  -3.5167  -3.5039  -3.4079  -3.3545  -3.2068  -3.1789
    -2.6088  -2.5597   0.6471   0.6504   0.9042   0.9043   1.8594   1.8626
     4.2190   4.2380   4.4031   4.4042   5.4641   5.4706   5.7109   5.7497
     6.0239   6.0782   6.5834   6.5843   7.0787   7.0790   7.2853   7.2859
     9.2267   9.2508   9.3661   9.4171  10.2451  10.2983  10.7442  10.7606
    11.7637  11.7710  12.6641  12.6653  13.8133  13.8150  14.2315  14.2542
    15.0892  15.0898  15.1375  15.1452  15.6273  15.6394  15.6498  15.6585
    16.4042  16.4421  16.4950  16.5025  17.1915  17.2839  18.0800  18.1498
    19.0933  19.0944  19.2619  19.2733  19.3217  19.3297  19.8442  19.8460
    20.0294  20.0511  20.2719  20.2862  20.5482  20.5510  20.9630  20.9871
    21.6768  21.7471  21.8266  21.8291  23.0407  23.0460  23.8477  23.8499
    24.0492  24.0501  24.2437  24.3116  24.5340  24.5512  24.7158  24.7179
    25.0135  25.0156  25.1365  25.1683  25.6756  25.7173  25.8195  25.8230
    25.8445  25.8487  25.9703  25.9707  27.0744  27.1095  27.5077  27.5104
    27.8968  27.8998  28.4721  28.4778  28.4863  28.4911  28.8996  28.9068
    29.0999  29.1344  29.3412  29.3739  29.9672  29.9680  30.1023  30.1025
    30.3512  30.3637  30.5065  30.5195  31.0052  31.0192  31.3980  31.4037
    31.4395  31.4689  31.9783  31.9809  32.3998  32.4022  32.9698  32.9705
    33.0291  33.0361  33.4673  33.4680  33.8226  33.8346  34.3362  34.3385
    34.3804  34.3862  34.8786  34.8849  35.0536  35.0703  35.4555  35.4573
    35.6682  35.6698  35.7936  35.7936  36.2264  36.2304  36.4949  36.4997
    36.9219  36.9259  37.4937  37.5066  37.7502  37.7527  38.2125  38.2133
    38.6388  38.6396  38.9921  39.0019  39.3257  39.3263  40.1349  40.1605
    40.1731  40.1864  40.7453  40.7473  40.9053  40.9096  41.4551  41.4619
    41.8281  41.8351  41.9479  41.9560  42.2955  42.3289  42.3607  42.3919
    42.7652  42.7692  42.8161  42.8205  43.3906  43.3984  43.4488  43.4493
    43.9375  43.9411  43.9676  43.9689  44.4615  44.4768  44.6240  44.6245
    44.9625  44.9661  45.3725  45.3753  45.7995  45.8014  46.3887  46.3907
    46.5869  46.6008  46.6451  46.6535  46.9868  46.9899  47.2253  47.2301
    47.4492  47.4531  47.7683  47.7750  48.3480  48.3546  48.6314  48.6346
    49.5201  49.5241  49.6585  49.6720  50.3412  50.3471  50.3910  50.3959
    50.5308  50.5309  50.7795  50.7835  51.0620  51.0621  51.7658  51.7660
    51.9573  51.9590  52.2698  52.2759  52.2916  52.2927  52.9209  52.9249
    52.9370  52.9375  53.5438  53.5447  53.8120  53.8252  54.1110  54.1115
    54.2243  54.2247  54.5951  54.5967  54.6417  54.6453  54.8208  54.8214
    55.1943  55.2064  55.5776  55.5779  55.6318  55.6328  55.7495  55.7571
    56.4281  56.4303  56.5683  56.5701  56.9322  56.9366  57.1633  57.1635
    57.5986  57.6012  57.7851  57.7922  58.1501  58.1503  58.4976  58.5006
    59.0451  59.0682  59.0758  59.0840  59.0893  59.0969  59.7072  59.7073
    59.7599  59.7620  59.8687  59.8702  60.6202  60.6409  60.8024  60.8032
    60.8704  60.8704  61.4026  61.4054  61.6519  61.6686  62.0170  62.0201
    62.0730  62.0848  62.3441  62.3462  62.4811  62.4815  62.6440  62.6442
    63.1765  63.1823  63.7810  63.7842  63.7896  63.7917  63.9057  63.9061
    64.0958  64.0965  64.2605  64.2638  64.6866  64.7093  65.1182  65.1374
    65.2754  65.2759  65.3257  65.3387  65.5907  65.6049  65.9173  65.9263
    65.9957  66.0015  66.2268  66.2336  66.4194  66.4215  66.7115  66.7141
    66.7232  66.7259  67.1171  67.1532  67.4131  67.4176  67.7172  67.7181
    67.8186  67.8312  67.8877  67.8889  68.0698  68.0711  68.3396  68.3470
    68.5703  68.5705  68.6973  68.7006  69.1442  69.1467  69.3427  69.3649
    69.6920  69.6936  69.8773  69.8778  70.1158  70.1160  70.2467  70.2550
    70.4631  70.4640  70.5905  70.5932  70.5978  70.5995  70.7527  70.7540
    70.9122  70.9186  71.2692  71.2729  71.4283  71.4345  71.5887  71.5889
    71.7191  71.7249  71.9377  71.9389  72.3651  72.3803  72.5269  72.5275
    72.9861  72.9966  73.0174  73.0180  73.0999  73.1252  73.1685  73.1837
    73.6448  73.6487  73.7830  73.8019  74.1844  74.1857  74.4322  74.4322
    74.7104  74.7150  75.0768  75.1053  75.1714  75.1726  75.2513  75.3085
    75.3236  75.3471  75.5420  75.5710  76.0582  76.0708  76.1210  76.1450
    76.3954  76.4020  76.6191  76.6205  76.7111  76.7421  76.9811  76.9815
    77.5219  77.5986  77.6402  77.6425  77.7031  77.7475  77.8538  77.8591
    78.2548  78.3206  78.3416  78.3463  78.6440  78.8722

          k = 0.0833 0.2406 0.0000 (  3991 PWs)   bands (ev):

   -66.7172 -66.7172 -42.5198 -42.5165 -40.0780 -40.0771 -39.9812 -39.9755
   -19.3822 -19.3759 -18.4710 -18.4705 -10.9489 -10.9389  -9.5979  -9.5941
    -9.1851  -9.1753  -8.5018  -8.4972  -7.9085  -7.8691  -6.9447  -6.9155
    -6.4918  -6.4662  -3.8246  -3.7978  -3.4318  -3.4224  -3.3286  -3.2620
    -2.1453  -2.0986   1.1171   1.1237   1.3580   1.3584   2.9153   2.9166
     3.8033   3.8297   4.1200   4.1204   5.6743   5.6762   5.7726   5.7892
     6.2891   6.3078   6.5717   6.5803   7.3255   7.3855   7.6847   7.6852
     8.3197   8.3537   9.0737   9.0758  10.0247  10.0868  11.0722  11.0914
    12.7067  12.7128  13.0410  13.0413  13.1067  13.1070  13.7108  13.7108
    14.2835  14.2969  14.5610  14.5621  15.4374  15.4378  15.7272  15.7329
    16.3045  16.3396  17.1652  17.1883  17.4091  17.4100  17.9673  17.9883
    18.0864  18.1206  18.4053  18.4105  19.3099  19.3118  19.4734  19.4812
    19.8772  19.8796  20.1506  20.1531  20.1752  20.1769  20.8883  20.9278
    22.2948  22.3073  22.3338  22.3342  22.9315  22.9348  23.1836  23.2468
    23.6621  23.6793  23.9261  23.9322  24.5875  24.6025  24.8877  24.8890
    25.0383  25.0611  25.9307  25.9325  26.3542  26.3853  26.4456  26.4473
    26.4553  26.4631  26.6107  26.6177  27.3187  27.3346  27.4721  27.4768
    27.6945  27.7008  28.0043  28.0071  28.2783  28.2795  28.8382  28.8497
    29.0201  29.0221  29.2159  29.2293  29.8777  29.8800  29.8904  29.8951
    30.5558  30.5604  30.6449  30.6483  31.2713  31.2732  31.4081  31.4412
    32.1630  32.1974  32.3545  32.3558  32.7009  32.7022  32.9587  32.9605
    33.0324  33.0373  33.6946  33.7038  33.7175  33.7264  34.3593  34.3609
    34.7763  34.7795  34.8417  34.8529  35.4703  35.4712  35.7472  35.7742
    36.1516  36.1687  36.4551  36.4568  36.5171  36.5278  37.1768  37.1804
    37.4907  37.4950  38.2178  38.2567  38.3435  38.3484  39.0002  39.0069
    39.0391  39.0401  39.5029  39.5036  39.7373  39.7419  39.7738  39.7804
    40.3181  40.3235  40.3679  40.3681  40.9205  40.9278  41.6889  41.6902
    42.0766  42.0845  42.2357  42.2384  42.3735  42.3782  42.7641  42.7921
    42.8332  42.8351  43.4112  43.4113  43.5472  43.5551  43.7175  43.7249
    44.1183  44.1231  44.3501  44.3516  44.8398  44.8416  44.9716  44.9733
    45.1622  45.1634  45.3201  45.3281  45.5840  45.5859  45.8379  45.8383
    46.1791  46.1800  46.3907  46.3926  47.2348  47.2412  47.3088  47.3107
    47.6318  47.6346  47.9965  47.9982  48.0580  48.0611  48.6411  48.6413
    48.8019  48.8028  49.0023  49.0050  49.2600  49.2639  49.3374  49.3390
    49.9916  49.9927  50.3554  50.3580  50.7109  50.7114  51.1785  51.1834
    51.2588  51.2632  51.4841  51.4858  51.7270  51.7272  52.1050  52.1053
    52.3848  52.3863  52.8413  52.8439  53.0214  53.0248  53.6324  53.6353
    53.9322  53.9333  54.0103  54.0116  54.2553  54.2555  54.5720  54.5723
    55.0472  55.0511  55.1775  55.1788  55.2365  55.2370  56.0021  56.0049
    56.0760  56.0778  56.3905  56.3946  56.6017  56.6020  56.9987  57.0015
    57.2397  57.2401  57.2445  57.2448  57.8073  57.8178  57.8745  57.8766
    58.4476  58.4519  58.5095  58.5117  58.7691  58.7698  58.8669  58.8683
    59.5772  59.5793  59.6152  59.6155  60.2139  60.2188  60.3208  60.3228
    60.7882  60.8108  60.8313  60.8341  61.4422  61.4432  61.6308  61.6308
    62.0149  62.0297  62.0468  62.0485  62.5218  62.5270  62.7807  62.7864
    62.8624  62.8635  62.9221  62.9254  63.2768  63.3094  63.6993  63.7043
    63.7996  63.8010  64.2645  64.2695  64.4414  64.4427  64.8362  64.8378
    65.1256  65.1415  65.2987  65.2994  65.5108  65.5122  65.6816  65.6833
    65.7769  65.7926  66.1130  66.1151  66.2568  66.2571  66.4556  66.4594
    66.6551  66.6604  66.8094  66.8110  66.8677  66.8748  67.3140  67.3165
    67.6237  67.6292  67.7165  67.7450  68.0112  68.0131  68.2715  68.2793
    68.4093  68.4330  68.5599  68.5608  68.7921  68.7945  69.0362  69.0390
    69.3688  69.3844  69.3931  69.4004  69.8651  69.8671  70.0784  70.0786
    70.2999  70.3016  70.3600  70.3741  70.7605  70.7643  70.7975  70.8102
    71.1680  71.1681  71.2252  71.2258  71.3742  71.3917  71.5579  71.5607
    72.1511  72.1533  72.2531  72.2595  72.4637  72.4669  72.7027  72.7171
    73.1013  73.1079  73.1606  73.1638  73.4502  73.4530  73.6430  73.6480
    73.7002  73.7193  74.1662  74.1717  74.4480  74.4600  74.5234  74.5261
    74.7766  74.7844  74.8906  74.8957  74.9844  75.0192  75.4913  75.5047
    75.8470  75.8806  76.1397  76.1640  76.2879  76.2919  76.4419  76.4545
    76.6802  76.7347  76.7877  76.7986  76.9284  76.9304  77.3134  77.3262
    77.4778  77.4794  77.5156  77.5919  77.6970  77.7193  77.9901  77.9916
    78.1580  78.1730  78.3206  78.3436  78.4420  78.5313

          k = 0.0833 0.3368 0.0000 (  4006 PWs)   bands (ev):

   -66.7072 -66.7072 -42.5502 -42.5444 -40.1224 -40.1190 -40.0086 -40.0039
   -18.9159 -18.9039 -18.2799 -18.2790 -10.9780 -10.9647  -9.8457  -9.8350
    -9.7733  -9.7673  -8.8749  -8.8655  -7.6808  -7.6147  -7.2416  -7.2180
    -6.8026  -6.7366  -3.9008  -3.8389  -3.4799  -3.4536  -2.9276  -2.8784
    -1.7810  -1.7443   1.6111   1.6253   1.8887   1.8889   2.6690   2.6778
     3.3810   3.3845   3.9594   3.9656   5.7508   5.7574   6.0379   6.0399
     6.2917   6.3097   6.8326   6.8570   7.1048   7.1125   8.3665   8.3675
     9.0305   9.0306   9.4122   9.4138  10.0083  10.0523  10.8814  10.8835
    11.1314  11.1367  12.0178  12.0342  13.2642  13.2752  13.8760  13.8805
    13.8917  13.9033  14.5739  14.5770  15.5989  15.5993  15.9102  15.9138
    16.2428  16.2568  16.9690  16.9807  17.4607  17.4728  17.4835  17.4837
    18.2451  18.2463  18.8022  18.8108  19.0027  19.0050  19.6401  19.6537
    19.7255  19.7518  19.9878  20.0011  20.8334  20.8356  21.1974  21.2260
    21.7452  21.8200  21.8303  21.8473  22.3617  22.3662  22.9548  22.9607
    23.5046  23.5064  23.9590  23.9593  24.3002  24.3041  24.5772  24.5973
    25.2014  25.2049  25.6121  25.6145  25.6382  25.6386  25.7336  25.7346
    26.4497  26.4735  26.9314  26.9347  26.9708  26.9969  27.4006  27.4053
    27.8238  27.8239  28.1357  28.1553  28.4950  28.4971  28.8844  28.8985
    29.5321  29.5335  29.8573  29.8818  30.4717  30.4721  30.6971  30.6988
    30.9932  30.9940  31.5688  31.5761  31.9315  31.9573  32.0162  32.0179
    32.1472  32.1632  32.6273  32.6289  33.1825  33.1829  33.2662  33.2690
    33.7804  33.7829  33.8273  33.8289  34.6002  34.6071  34.8820  34.8844
    35.0677  35.0721  35.4739  35.4742  35.7472  35.7527  36.0611  36.0802
    36.4447  36.4514  36.9067  36.9076  36.9250  36.9273  37.4450  37.4492
    38.0453  38.0508  38.2017  38.2080  38.2859  38.2926  38.9102  38.9348
    39.1535  39.1546  39.3103  39.3108  39.7982  39.8077  40.1492  40.1524
    40.3662  40.3740  40.6948  40.7025  41.0627  41.0668  41.5227  41.5241
    41.8289  41.8361  42.0265  42.0282  42.1827  42.1860  42.5478  42.5507
    42.9856  42.9857  43.0653  43.0657  43.7953  43.7975  43.8911  43.8937
    44.0870  44.0873  44.5233  44.5321  44.6391  44.6409  45.0392  45.0420
    45.0885  45.0980  45.4177  45.4381  45.5342  45.5377  45.6065  45.6110
    46.3229  46.3273  46.3374  46.3396  46.9978  47.0004  47.0380  47.0405
    47.6282  47.6587  47.7843  47.7865  48.0409  48.0437  48.4291  48.4320
    48.6043  48.6071  48.8277  48.8342  48.8971  48.8990  49.3780  49.3783
    49.4979  49.5002  50.2156  50.2184  50.2337  50.2352  51.1991  51.2023
    51.2145  51.2149  51.3702  51.3725  51.7713  51.7725  51.9846  51.9862
    52.3661  52.3760  52.7532  52.7566  53.0047  53.0088  53.1682  53.1729
    53.6746  53.6759  53.8013  53.8054  54.0328  54.0335  54.2957  54.3089
    54.8623  54.8639  54.9415  54.9470  55.0169  55.0171  55.7031  55.7081
    55.9065  55.9084  56.0050  56.0105  56.3673  56.3679  56.5507  56.5510
    56.6369  56.6400  57.0348  57.0411  57.5000  57.5004  57.5663  57.5676
    58.1284  58.1291  58.3220  58.3246  58.3642  58.3645  58.7865  58.7911
    58.9885  58.9912  59.3563  59.3577  59.5733  59.5744  59.6706  59.6810
    59.8801  59.8871  60.2354  60.2400  60.6292  60.6340  60.7506  60.7527
    61.0644  61.0650  61.1618  61.1642  61.6188  61.6243  61.7968  61.8000
    62.1492  62.1542  62.4807  62.4814  62.5744  62.5849  62.9026  62.9068
    63.2519  63.2575  63.3313  63.3325  63.5467  63.5470  64.2435  64.2476
    64.3934  64.3974  64.7519  64.7586  64.8578  64.8646  65.1354  65.1391
    65.2728  65.2730  65.6364  65.6401  65.7168  65.7286  65.8598  65.8756
    66.2724  66.2732  66.5552  66.5590  66.7150  66.7158  67.1916  67.1944
    67.2477  67.2525  67.7582  67.7614  67.7903  67.7944  68.1314  68.1315
    68.2471  68.2509  68.4293  68.4542  68.7104  68.7170  68.8342  68.8401
    69.2206  69.2288  69.6436  69.6558  69.6577  69.6639  69.9643  70.0003
    70.2159  70.2177  70.6697  70.7183  70.8493  70.8819  71.1004  71.1027
    71.2323  71.2795  71.4608  71.4626  71.6749  71.6753  71.7123  71.8135
    72.1298  72.1364  72.2032  72.2033  72.5072  72.5207  72.7215  72.7422
    72.8298  72.8460  73.1767  73.2247  73.2264  73.2282  73.5809  73.5817
    73.9360  73.9418  74.0864  74.1045  74.3966  74.3982  74.7572  74.7658
    75.0188  75.0212  75.3069  75.3088  75.4666  75.4821  75.6737  75.6766
    75.8155  75.8194  75.9225  75.9253  75.9423  75.9982  76.3055  76.3319
    76.4112  76.4512  77.0364  77.0433  77.2826  77.3200  77.3934  77.4006
    77.5943  77.6001  77.6386  77.6394  77.9631  78.0097  78.1170  78.1262
    78.1557  78.1680  78.6422  78.6481  78.8235  78.8305

          k = 0.0833 0.4330 0.0000 (  4017 PWs)   bands (ev):

[...]
    26.1321  26.1350  26.4442  26.4615  27.0517  27.0542  27.3703  27.3978
    27.8961  27.8979  28.7287  28.7336  29.1000  29.1072  29.1505  29.1522
    29.4900  29.4908  29.6271  29.6438  30.0342  30.0397  30.4065  30.4799
    30.9783  30.9804  31.3515  31.3665  31.5845  31.5846  32.3417  32.3849
    32.5203  32.5251  33.1873  33.1938  33.3921  33.4012  33.4693  33.4835
    34.5112  34.5148  34.7475  34.7487  34.8031  34.8049  35.5869  35.5892
    35.7376  35.7405  35.9601  35.9614  36.5406  36.5569  36.7765  36.7780
    36.9036  36.9331  37.2534  37.2592  37.7506  37.7753  37.9306  37.9310
    38.2383  38.2466  38.4011  38.4020  38.7631  38.7786  38.8078  38.8099
    39.1095  39.1176  39.1479  39.1616  39.4047  39.4105  39.6143  39.6146
    40.2983  40.3220  40.5677  40.5719  41.2333  41.2475  41.8511  41.8581
    41.8721  41.8749  42.0268  42.0274  42.1954  42.1964  42.4168  42.4202
    42.6047  42.6079  42.7548  42.7642  42.9063  42.9102  43.4775  43.4792
    43.9537  43.9565  44.0312  44.0339  44.2938  44.3139  44.5822  44.5827
    45.1463  45.1487  46.0770  46.1007  46.3362  46.3375  46.5328  46.5341
    46.9850  46.9858  47.1637  47.1854  47.2057  47.2077  47.8830  47.8945
    47.9820  47.9824  48.4054  48.4064  48.4929  48.4956  48.8352  48.8530
    49.1475  49.1524  49.4128  49.4129  49.7345  49.7355  49.7622  49.7624
    49.8277  49.8285  50.5072  50.5135  51.0106  51.0125  51.1581  51.1824
    51.2734  51.2799  51.5903  51.5929  51.8472  51.8488  52.0199  52.0199
    52.0390  52.0431  52.5525  52.5576  52.7121  52.7167  52.9701  52.9716
    53.0796  53.0818  53.3585  53.3595  53.4511  53.4614  53.7131  53.7190
    53.7318  53.7354  54.3633  54.3669  54.8624  54.8635  55.0973  55.0974
    55.2242  55.2257  55.2322  55.2336  55.3295  55.3578  55.7608  55.7675
    55.8893  55.8904  56.3553  56.3556  56.6280  56.6445  56.8874  56.9147
    57.0781  57.0812  57.3505  57.3855  57.7665  57.7724  57.8625  57.8629
    57.9373  57.9396  58.3136  58.3187  58.4035  58.4045  58.8639  58.8641
    59.2820  59.2992  59.5202  59.5228  59.6673  59.6713  59.8344  59.8601
    60.2291  60.2331  60.6584  60.6613  60.7515  60.7633  61.3406  61.3447
    61.3803  61.3889  61.7968  61.8043  61.9124  61.9145  62.3360  62.3422
    62.4203  62.4230  63.1786  63.1851  63.2524  63.2613  63.5368  63.5398
    63.7064  63.7093  63.9121  63.9269  63.9888  63.9923  64.3391  64.3418
    64.5076  64.5086  64.7838  64.7881  64.8547  64.8642  65.2661  65.2691
    65.2727  65.2770  65.8778  65.8852  66.2152  66.2176  66.2459  66.2559
    66.7940  66.8153  66.8338  66.8367  67.0785  67.0877  67.1437  67.1465
    67.2514  67.2895  67.6185  67.6193  68.2220  68.2346  68.3304  68.3475
    68.6745  68.7150  68.8402  68.8470  68.8670  68.8717  69.3086  69.3233
    69.6751  69.6867  69.7600  69.8106  70.2458  70.2471  70.7506  70.7758
    70.8238  70.8480  71.0851  71.0989  71.4048  71.4049  71.4385  71.4387
    71.6315  71.6333  71.9259  71.9302  72.0839  72.0907  72.3689  72.3789
    72.5544  72.5645  72.6198  72.6544  72.9742  72.9904  73.7713  73.8245
    73.8614  73.8675  74.2053  74.2064  74.4729  74.4750  74.7802  74.8114
    74.8162  74.8265  75.1250  75.1252  75.4379  75.4511  75.7354  75.7555
    75.9509  75.9516  76.0159  76.0684  76.0843  76.1513  76.8307  76.8341
    76.8663  76.8682  77.2109  77.2142  77.3309  77.3652  77.7861  77.8084
    78.2878  78.2991  78.3749  78.3800  78.4619  78.4857  78.5962  78.6507
    78.8081  78.8813  78.9037  78.9046  79.3039  79.3367

          k = 0.2500 0.5292 0.0000 (  4050 PWs)   bands (ev):

   -66.6898 -66.6898 -42.6078 -42.5858 -40.2028 -40.1634 -40.0716 -40.0631
   -17.9806 -17.9232 -17.8659 -17.8626 -11.2213 -11.2126 -10.9462 -10.9178
    -9.7535  -9.7450  -9.1597  -9.1157  -8.9912  -8.9513  -7.9123  -7.9072
    -6.1836  -6.0555  -3.9661  -3.9454  -2.7631  -2.7608  -2.6384  -2.5217
    -1.1769  -1.1070   1.1686   1.2222   2.3562   2.4250   3.5256   3.5326
     4.2041   4.2340   4.8957   4.9076   5.6148   5.6155   5.9229   5.9333
     6.2898   6.2976   6.7281   6.7389   7.6130   7.6437   7.7767   7.7790
     8.5655   8.5657   8.6661   8.6663   9.1238   9.1379  10.1107  10.1152
    11.1147  11.1195  11.5714  11.5781  12.7080  12.7102  13.4227  13.5113
    13.5115  13.5652  13.9724  13.9754  14.5150  14.5173  15.7644  15.7811
    15.9871  15.9912  17.1889  17.1895  17.9652  17.9661  18.0093  18.0116
    18.4516  18.4635  19.1783  19.1822  19.4295  19.4318  19.7043  19.7124
    20.7055  20.7144  20.7665  20.7731  21.1953  21.1956  21.3898  21.3997
    21.9779  21.9825  22.5211  22.5232  22.7060  22.7175  23.1897  23.1925
    23.2636  23.2696  23.6012  23.6032  23.9203  23.9225  24.5133  24.5242
    24.8047  24.8078  25.2684  25.2699  25.5486  25.5511  25.8238  25.8331
    26.1551  26.1579  26.9514  26.9528  27.4420  27.4438  27.4941  27.4980
    27.9000  27.9005  28.3108  28.3327  29.1408  29.1669  29.1993  29.1994
    29.4919  29.4970  29.9594  29.9821  30.3281  30.3309  30.6001  30.6236
    31.0801  31.0812  31.3101  31.3173  31.4913  31.4959  32.1551  32.1597
    32.4192  32.4224  32.9646  32.9890  33.2553  33.2559  33.6314  33.6501
    33.6639  33.6665  34.1067  34.1308  34.3217  34.3225  34.8991  34.9366
    35.2960  35.2969  35.5383  35.5486  36.0452  36.0465  36.2192  36.2211
    36.6695  36.6701  37.1577  37.1604  37.6511  37.6525  37.7433  37.7465
    38.3789  38.3818  38.5351  38.5391  38.9025  38.9029  39.1837  39.1938
    39.7434  39.7441  40.2236  40.2297  40.3895  40.4093  40.6084  40.6085
    40.6869  40.6906  40.9573  40.9574  41.2271  41.2404  41.7632  41.7645
    41.7808  41.7828  42.6371  42.6372  42.6898  42.6967  42.8911  42.9014
    43.1112  43.1156  43.3311  43.3416  43.6900  43.6900  43.8827  43.8831
    44.1109  44.1192  44.5184  44.5308  44.9196  44.9201  45.2569  45.2602
    45.7292  45.7315  45.8749  45.8817  46.0859  46.0870  46.4293  46.4538
    46.7700  46.7809  47.0559  47.0579  47.0858  47.0894  47.4944  47.4948
    47.7624  47.7633  48.0660  48.0662  48.4086  48.4200  48.5343  48.5358
    48.8778  48.8801  49.1305  49.1384  49.3149  49.3161  49.7899  49.7970
    50.0869  50.0913  50.1235  50.1335  50.4845  50.4962  50.6213  50.6216
    50.9669  50.9677  51.2563  51.2633  51.2998  51.3021  51.5579  51.5588
    51.8473  51.8473  51.9596  51.9635  52.4288  52.4467  52.7119  52.7127
    53.0651  53.0742  53.1656  53.1672  53.3885  53.3903  53.4410  53.4413
    53.9416  53.9611  54.0538  54.0545  54.6991  54.7035  54.7105  54.7105
    54.9729  54.9736  55.3915  55.4197  55.4401  55.4429  55.9811  55.9826
    56.1469  56.1479  56.5023  56.5036  56.5422  56.5440  57.1102  57.1260
    57.3751  57.3766  57.4424  57.4439  57.7890  57.7913  57.8552  57.8590
    58.0840  58.1115  58.5928  58.5942  58.6251  58.6334  59.0215  59.0219
    59.1584  59.1722  59.6377  59.6443  59.6757  59.6785  60.1147  60.1154
    60.1677  60.1775  60.7286  60.7439  60.8033  60.8049  60.9858  60.9886
    61.2590  61.2668  61.5372  61.5479  61.8032  61.8055  61.8239  61.8247
    62.0829  62.0838  62.1434  62.1451  62.9529  62.9556  62.9882  62.9914
    63.2303  63.2307  63.5351  63.5452  63.8676  63.8707  63.9879  63.9890
    64.0987  64.1008  64.6171  64.6257  64.7440  64.7454  65.0399  65.0556
    65.2184  65.2190  65.5038  65.5068  65.7315  65.7426  65.9940  65.9982
    66.3554  66.3559  66.4993  66.5064  66.8882  66.8978  66.9053  66.9173
    67.2281  67.2284  67.6072  67.6117  67.6746  67.6947  68.2511  68.2709
    68.6012  68.6057  68.8198  68.8600  68.9516  68.9598  69.3297  69.3340
    69.3566  69.3586  69.9125  69.9236  70.0619  70.0657  70.3843  70.3872
    70.4050  70.4128  70.8334  70.8431  70.8506  70.8621  71.3683  71.4130
    71.4973  71.5053  71.7492  71.7528  71.9332  71.9394  72.3240  72.3304
    72.8347  72.8390  72.9210  72.9225  73.4777  73.4794  73.7001  73.7008
    73.9178  73.9369  74.1164  74.1191  74.2767  74.2817  74.4684  74.4796
    74.6134  74.6254  75.0842  75.0881  75.2839  75.2996  75.5935  75.5998
    75.8271  75.8556  75.9046  75.9054  76.3512  76.3560  76.4394  76.4742
    76.7472  76.7525  76.8914  76.8957  77.4634  77.4647  77.7391  77.7484
    78.0254  78.0389  78.1383  78.1517  78.3971  78.4127  78.5206  78.5281
    78.9348  78.9388  78.9987  79.0177  79.2033  79.2180

          k = 0.2500 0.6255 0.0000 (  4050 PWs)   bands (ev):

   -66.6898 -66.6898 -42.6078 -42.5858 -40.2028 -40.1634 -40.0716 -40.0631
   -17.9806 -17.9232 -17.8659 -17.8626 -11.2213 -11.2126 -10.9462 -10.9178
    -9.7535  -9.7450  -9.1597  -9.1157  -8.9912  -8.9513  -7.9123  -7.9072
    -6.1836  -6.0555  -3.9661  -3.9454  -2.7631  -2.7608  -2.6384  -2.5217
    -1.1769  -1.1070   1.1686   1.2222   2.3562   2.4250   3.5256   3.5326
     4.2041   4.2340   4.8957   4.9076   5.6148   5.6155   5.9229   5.9333
     6.2898   6.2976   6.7281   6.7389   7.6130   7.6437   7.7767   7.7790
     8.5655   8.5657   8.6661   8.6663   9.1238   9.1379  10.1107  10.1152
    11.1147  11.1195  11.5714  11.5781  12.7080  12.7102  13.4227  13.5113
    13.5115  13.5652  13.9724  13.9754  14.5150  14.5173  15.7644  15.7811
    15.9871  15.9912  17.1889  17.1895  17.9652  17.9661  18.0093  18.0116
    18.4516  18.4635  19.1783  19.1822  19.4295  19.4318  19.7043  19.7124
    20.7055  20.7144  20.7665  20.7731  21.1953  21.1956  21.3898  21.3997
    21.9779  21.9825  22.5211  22.5232  22.7060  22.7175  23.1897  23.1925
    23.2636  23.2696  23.6012  23.6032  23.9203  23.9225  24.5133  24.5242
    24.8047  24.8078  25.2684  25.2699  25.5486  25.5511  25.8238  25.8331
    26.1551  26.1579  26.9514  26.9528  27.4420  27.4438  27.4941  27.4980
    27.9000  27.9005  28.3108  28.3327  29.1408  29.1669  29.1993  29.1994
    29.4919  29.4970  29.9594  29.9821  30.3281  30.3309  30.6001  30.6236
    31.0801  31.0812  31.3101  31.3173  31.4913  31.4959  32.1551  32.1597
    32.4192  32.4224  32.9646  32.9890  33.2553  33.2559  33.6314  33.6501
    33.6639  33.6665  34.1067  34.1308  34.3217  34.3225  34.8991  34.9366
    35.2960  35.2969  35.5383  35.5486  36.0452  36.0465  36.2192  36.2211
    36.6695  36.6701  37.1577  37.1604  37.6511  37.6525  37.7433  37.7465
    38.3789  38.3818  38.5351  38.5391  38.9025  38.9029  39.1837  39.1938
    39.7434  39.7441  40.2236  40.2297  40.3895  40.4093  40.6084  40.6085
    40.6869  40.6906  40.9573  40.9574  41.2271  41.2404  41.7632  41.7645
    41.7808  41.7828  42.6371  42.6372  42.6898  42.6967  42.8911  42.9014
    43.1112  43.1156  43.3311  43.3416  43.6900  43.6900  43.8827  43.8831
    44.1109  44.1192  44.5184  44.5308  44.9196  44.9201  45.2569  45.2602
    45.7292  45.7315  45.8749  45.8817  46.0859  46.0870  46.4293  46.4538
    46.7700  46.7809  47.0559  47.0579  47.0858  47.0894  47.4944  47.4948
    47.7624  47.7633  48.0660  48.0662  48.4086  48.4200  48.5343  48.5358
    48.8778  48.8801  49.1305  49.1384  49.3149  49.3161  49.7899  49.7970
    50.0869  50.0913  50.1235  50.1335  50.4845  50.4962  50.6213  50.6216
    50.9669  50.9677  51.2563  51.2633  51.2998  51.3021  51.5579  51.5588
    51.8473  51.8473  51.9596  51.9635  52.4288  52.4467  52.7119  52.7127
    53.0651  53.0742  53.1656  53.1672  53.3885  53.3903  53.4410  53.4413
    53.9416  53.9611  54.0538  54.0545  54.6991  54.7035  54.7105  54.7105
    54.9729  54.9736  55.3915  55.4197  55.4401  55.4429  55.9811  55.9826
    56.1469  56.1479  56.5023  56.5036  56.5422  56.5440  57.1102  57.1260
    57.3751  57.3766  57.4424  57.4439  57.7890  57.7913  57.8552  57.8590
    58.0840  58.1115  58.5928  58.5942  58.6251  58.6334  59.0215  59.0219
    59.1584  59.1722  59.6377  59.6443  59.6757  59.6785  60.1147  60.1154
    60.1677  60.1775  60.7286  60.7439  60.8033  60.8049  60.9858  60.9886
    61.2590  61.2668  61.5372  61.5479  61.8032  61.8055  61.8239  61.8247
    62.0829  62.0838  62.1434  62.1451  62.9529  62.9556  62.9882  62.9914
    63.2303  63.2307  63.5351  63.5452  63.8676  63.8707  63.9879  63.9890
    64.0987  64.1008  64.6171  64.6257  64.7440  64.7454  65.0399  65.0556
    65.2184  65.2190  65.5038  65.5068  65.7315  65.7426  65.9940  65.9982
    66.3554  66.3559  66.4993  66.5064  66.8882  66.8978  66.9053  66.9173
    67.2281  67.2284  67.6072  67.6117  67.6746  67.6947  68.2511  68.2709
    68.6012  68.6057  68.8198  68.8600  68.9516  68.9598  69.3297  69.3340
    69.3566  69.3586  69.9125  69.9236  70.0619  70.0657  70.3843  70.3872
    70.4050  70.4128  70.8334  70.8431  70.8506  70.8621  71.3683  71.4130
    71.4973  71.5053  71.7492  71.7528  71.9332  71.9394  72.3240  72.3304
    72.8347  72.8390  72.9210  72.9225  73.4777  73.4794  73.7001  73.7008
    73.9178  73.9369  74.1164  74.1191  74.2767  74.2817  74.4684  74.4796
    74.6134  74.6254  75.0842  75.0881  75.2839  75.2996  75.5935  75.5998
    75.8271  75.8556  75.9046  75.9054  76.3512  76.3560  76.4394  76.4742
    76.7472  76.7525  76.8914  76.8957  77.4634  77.4647  77.7391  77.7484
    78.0254  78.0389  78.1383  78.1517  78.3971  78.4127  78.5206  78.5281
    78.9348  78.9388  78.9987  79.0177  79.2033  79.2180

          k = 0.3333 0.5774 0.0000 (  4050 PWs)   bands (ev):

   -66.6885 -66.6885 -42.6123 -42.5880 -40.2056 -40.1558 -40.0880 -40.0722
   -17.9037 -17.8398 -17.8243 -17.8212 -11.3691 -11.3613 -10.5520 -10.5164
   -10.0392  -9.9808  -9.4835  -9.4653  -8.8386  -8.7883  -8.1140  -8.0906
    -6.0030  -5.8551  -4.1924  -4.1894  -2.8638  -2.8321  -2.4108  -2.2693
    -1.0303  -0.9476   1.3524   1.4742   1.7718   1.7747   3.8061   3.8142
     4.6854   4.7206   5.4518   5.4611   5.9075   5.9281   6.0419   6.0723
     6.3408   6.3423   6.5744   6.6021   7.2338   7.2555   8.2415   8.2596
     8.2847   8.2905   8.3199   8.3240   8.6676   8.6701   9.6784   9.6900
    10.6579  10.6587  11.5603  11.5915  12.6878  12.7131  12.7206  12.8438
    13.9585  13.9842  14.0888  14.0911  14.3059  14.3115  15.1270  15.1379
    15.5097  15.5247  17.2699  17.2834  18.9728  18.9733  19.2021  19.2085
    19.4343  19.4371  19.7921  19.8156  19.8399  19.8615  19.9057  19.9232
    19.9251  19.9265  20.7340  20.7425  20.7750  20.7876  21.2272  21.2304
    22.0784  22.1244  22.4963  22.5068  22.5254  22.5306  22.9924  23.0070
    23.2625  23.2647  23.2906  23.3006  23.3656  23.3690  24.6410  24.6466
    24.7880  24.7887  25.6702  25.6715  25.8514  25.8597  26.2960  26.2994
    26.8403  26.8430  26.8897  26.8954  27.2809  27.2810  27.8310  27.8341
    27.8341  27.8423  27.9697  28.0187  28.0435  28.0440  28.0463  28.0617
    29.8641  29.9013  29.9067  29.9339  30.4315  30.4377  30.6374  30.6500
    30.9585  30.9673  31.7714  31.7745  32.0252  32.0313  32.2575  32.3103
    32.5667  32.5690  32.8883  32.8924  32.8928  32.9197  32.9464  32.9487
    33.4673  33.4688  34.0641  34.0809  34.1538  34.1964  34.7326  34.7332
    35.1296  35.1325  35.6549  35.6657  35.9888  35.9918  36.1365  36.1365
    36.3195  36.3319  37.0186  37.0434  37.4902  37.4968  37.5620  37.5694
    38.1040  38.1065  38.5059  38.5065  39.2738  39.2979  39.6062  39.6089
    39.6335  39.6441  39.9478  39.9501  40.6481  40.6585  40.6653  40.6768
    40.7460  40.7467  40.9379  40.9402  41.2335  41.2538  41.6357  41.6371
    42.1458  42.1491  42.6005  42.6027  42.8384  42.8390  43.7794  43.8007
    44.0897  44.0999  44.1041  44.1804  44.3414  44.3437  44.8274  44.8311
    44.9309  44.9333  45.0351  45.0592  45.2164  45.2176  45.5203  45.5206
    45.5887  45.5911  45.9541  45.9667  46.3488  46.3573  46.4289  46.4293
    46.6538  46.6573  46.6694  46.6711  46.6769  46.6795  46.8221  46.8247
    47.5541  47.5546  47.9999  48.0038  48.2563  48.2574  48.2654  48.2656
    48.6443  48.6443  48.9134  48.9190  49.1957  49.2827  49.2846  49.2868
    50.0428  50.0450  50.0655  50.0700  50.1490  50.1857  50.3604  50.3626
    50.8337  50.8356  51.1008  51.1009  51.3166  51.3419  51.6722  51.6829
    51.9166  51.9205  52.0443  52.0448  52.4807  52.4816  52.6073  52.6073
    52.6816  52.6818  52.7559  52.7571  52.8657  52.8695  52.8920  52.9019
    53.1530  53.1531  53.7799  53.7965  54.2261  54.2268  54.5633  54.6287
    54.8408  54.8418  55.3380  55.3383  56.0247  56.1472  56.3048  56.3269
    56.3540  56.3541  56.4109  56.4128  56.9239  56.9275  57.0201  57.0229
    57.1610  57.1638  57.3169  57.3244  57.4472  57.4493  57.8897  57.8959
    58.5608  58.5635  59.0260  59.0297  59.6095  59.6715  59.6751  59.6874
    59.7222  59.7224  59.8360  59.8576  59.8822  59.8860  59.9606  59.9645
    59.9724  60.0253  60.6438  60.6488  60.9057  60.9228  61.0918  61.0918
    61.2720  61.2815  61.5133  61.5143  61.5365  61.5649  61.8420  61.8460
    61.9909  62.0228  62.2249  62.2387  62.4958  62.5155  62.5787  62.5919
    62.7384  62.8131  63.1467  63.1473  63.4972  63.5124  63.5748  63.5798
    64.3039  64.3092  64.4296  64.4312  64.6420  64.6496  65.0919  65.0922
    65.1666  65.1764  65.3081  65.3679  65.8000  65.8134  66.1024  66.1102
    66.1593  66.2094  66.3991  66.4199  66.6135  66.6307  66.6405  66.6408
    67.0326  67.0366  67.0834  67.1336  67.3767  67.3803  67.7095  67.7350
    67.7442  67.7998  68.3543  68.3551  68.8779  68.8841  69.8358  69.8465
    69.9894  70.0319  70.1027  70.1753  70.4283  70.5141  70.6557  70.7167
    70.7245  70.8124  71.1691  71.1707  71.2845  71.3691  71.3718  71.3822
    71.4920  71.4937  71.6047  71.6148  71.7057  71.7366  71.8769  71.8870
    72.2063  72.2428  72.2797  72.3011  73.3021  73.3032  73.3322  73.3388
    73.3908  73.3974  73.6093  73.6110  73.6672  73.6857  74.2099  74.2122
    74.9648  74.9822  75.0005  75.0116  75.0494  75.0526  75.0581  75.1168
    75.4302  75.4540  75.6467  75.6725  75.7860  75.7920  75.8586  75.8718
    76.1398  76.1765  77.3712  77.3742  77.6443  77.6677  77.8579  77.8601
    78.1600  78.1661  78.6824  78.7015  78.7311  78.7505  78.7608  78.8163
    79.0859  79.1030  79.3367  79.5490  79.7671  79.7847

     Writing output data file MoS2.save/
 
     init_run     :      0.07s CPU      0.11s WALL (       1 calls)
     electrons    :     94.32s CPU     99.06s WALL (       1 calls)

     Called by init_run:
     wfcinit      :      0.00s CPU      0.00s WALL (       1 calls)
     potinit      :      0.05s CPU      0.08s WALL (       1 calls)
     hinit0       :      0.01s CPU      0.03s WALL (       1 calls)

     Called by electrons:
     c_bands      :     94.30s CPU     99.04s WALL (       1 calls)
     v_of_rho     :      0.00s CPU      0.00s WALL (       1 calls)

     Called by c_bands:
     init_us_2    :      0.00s CPU      0.00s WALL (       4 calls)
     ccgdiagg     :     83.89s CPU     88.32s WALL (      24 calls)
     wfcrot       :      7.01s CPU      7.31s WALL (      24 calls)

     Called by sum_band:

     Called by *cgdiagg:
     h_psi        :     49.99s CPU     52.80s WALL (  114514 calls)
     cdiaghg      :      1.58s CPU      1.59s WALL (      24 calls)

     Called by h_psi:
     h_psi:pot    :     49.39s CPU     52.17s WALL (  114514 calls)
     h_psi:calbec :      4.85s CPU      5.12s WALL (  114514 calls)
     vloc_psi     :     40.57s CPU     42.86s WALL (  114514 calls)
     add_vuspsi   :      3.06s CPU      3.27s WALL (  114514 calls)
     hs_1psi      :     47.54s CPU     50.07s WALL (  114490 calls)
     s_1psi       :      4.46s CPU      4.70s WALL (  114490 calls)

     General routines
     calbec       :      7.76s CPU      8.29s WALL (  229004 calls)
     fft          :      0.00s CPU      0.01s WALL (      13 calls)
     fftw         :     37.74s CPU     39.89s WALL (  506152 calls)
 
     Parallel routines
     fft_scatt_xy :      3.71s CPU      3.91s WALL (  506165 calls)
     fft_scatt_yz :     22.89s CPU     24.31s WALL (  506165 calls)
 
     PWSCF        :   1m55.90s CPU   2m31.93s WALL

 
   This run was terminated on:  12:55:43   3May2021            

=------------------------------------------------------------------------------=
   JOB DONE.
=------------------------------------------------------------------------------=
