
     Program PWSCF v.5.0.2 (svn rev. 9656) starts on 26Jun2013 at 22:54:22 

     This program is part of the open-source Quantum ESPRESSO suite
     for quantum simulation of materials; please cite
         "P. Giannozzi et al., J. Phys.:Condens. Matter 21 395502 (2009);
          URL http://www.quantum-espresso.org", 
     in publications or presentations arising from this work. More details at
     http://www.quantum-espresso.org/quote.php

     Parallel version (MPI), running on    64 processors
     R & G space division:  proc/nbgrp/npool/nimage =      64

     Current dimensions of program PWSCF are:
     Max number of different atomic species (ntypx) = 10
     Max number of k-points (npk) =  40000
     Max angular momentum in pseudopotentials (lmaxx) =  3
     Waiting for input...
     Reading input from standard input

     Atomic positions and unit cell read from directory:
     ./Zn2O2.save/
 

     Subspace diagonalization in iterative solution of the eigenvalue problem:
     scalapack distributed-memory algorithm (size of sub-group:  5*  5 procs)


   Info: using nr1, nr2, nr3 values from input
 
     Parallelization info
     --------------------
     sticks:   dense  smooth     PW     G-vecs:    dense   smooth      PW
     Min          64      64     17                 5414     5414     747
     Max          65      65     19                 5423     5423     752
     Sum        4153    4153   1111               346889   346889   47903
 


     bravais-lattice index     =            0
     lattice parameter (alat)  =       1.8897  a.u.
     unit-cell volume          =     320.9943 (a.u.)^3
     number of atoms/cell      =            4
     number of atomic types    =            2
     number of electrons       =        52.00
     number of Kohn-Sham states=           26
     kinetic-energy cutoff     =     400.0000  Ry
     charge density cutoff     =    1600.0000  Ry
     Exchange-correlation      = SLA+PW ( 1 4 0 0 0)
     EXX-fraction              =        0.00

     celldm(1)=   1.889726  celldm(2)=   0.000000  celldm(3)=   0.000000
     celldm(4)=   0.000000  celldm(5)=   0.000000  celldm(6)=   0.000000

     crystal axes: (cart. coord. in units of alat)
               a(1) = (   3.250000   0.000000   0.000000 )  
               a(2) = (  -1.625000   2.814583   0.000000 )  
               a(3) = (   0.000000   0.000000   5.200000 )  

     reciprocal axes: (cart. coord. in units 2 pi/alat)
               b(1) = (  0.307692  0.177646  0.000000 )  
               b(2) = (  0.000000  0.355292  0.000000 )  
               b(3) = (  0.000000  0.000000  0.192308 )  


     PseudoPot. # 1 for Zn read from file:
     ../../0_pp/Zn.pw-spn-nc.UPF
     MD5 check sum: 9a837cc8ef69fdaee1504d3748345681
     Pseudo is Norm-conserving + core correction, Zval = 20.0
     Generated using "atomic" code by A. Dal Corso  v.5.0.2 svn rev. 9656
     Using radial grid of 1201 points,  2 beta functions with: 
                l(1) =   0
                l(2) =   1

     PseudoPot. # 2 for  O read from file:
     ../../0_pp/O.pw-n-nc.UPF
     MD5 check sum: 22ead4914353326b5879bd0c3df232e0
     Pseudo is Norm-conserving + core correction, Zval =  6.0
     Generated using "atomic" code by A. Dal Corso  v.5.0.2 svn rev. 9656
     Using radial grid of 1095 points,  1 beta functions with: 
                l(1) =   0

     atomic species   valence    mass     pseudopotential
        Zn            20.00    65.38000     Zn( 1.00)
        O              6.00    15.99900      O( 1.00)

     12 Sym. Ops. (no inversion) found ( 6 have fractional translation)


                                    s                        frac. trans.

      isym =  1     identity                                     

 cryst.   s( 1) = (     1          0          0      )
                  (     0          1          0      )
                  (     0          0          1      )

 cart.    s( 1) = (  1.0000000  0.0000000  0.0000000 )
                  (  0.0000000  1.0000000  0.0000000 )
                  (  0.0000000  0.0000000  1.0000000 )


      isym =  2     180 deg rotation - cart. axis [0,0,1]        

 cryst.   s( 2) = (    -1          0          0      )    f =(  0.0000000 )
                  (     0         -1          0      )       (  0.0000000 )
                  (     0          0          1      )       ( -0.5000000 )

 cart.    s( 2) = ( -1.0000000  0.0000000  0.0000000 )    f =(  0.0000000 )
                  (  0.0000000 -1.0000000  0.0000000 )       (  0.0000000 )
                  (  0.0000000  0.0000000  1.0000000 )       ( -2.6000000 )


      isym =  3      60 deg rotation - cryst. axis [0,0,1]       

 cryst.   s( 3) = (     1          1          0      )    f =(  0.0000000 )
                  (    -1          0          0      )       (  0.0000000 )
                  (     0          0          1      )       ( -0.5000000 )

 cart.    s( 3) = (  0.5000000 -0.8660254  0.0000000 )    f =(  0.0000000 )
                  (  0.8660254  0.5000000  0.0000000 )       (  0.0000000 )
                  (  0.0000000  0.0000000  1.0000000 )       ( -2.6000000 )


      isym =  4      60 deg rotation - cryst. axis [0,0,-1]      

 cryst.   s( 4) = (     0         -1          0      )    f =(  0.0000000 )
                  (     1          1          0      )       (  0.0000000 )
                  (     0          0          1      )       ( -0.5000000 )

 cart.    s( 4) = (  0.5000000  0.8660254  0.0000000 )    f =(  0.0000000 )
                  ( -0.8660254  0.5000000  0.0000000 )       (  0.0000000 )
                  (  0.0000000  0.0000000  1.0000000 )       ( -2.6000000 )


      isym =  5     120 deg rotation - cryst. axis [0,0,1]       

 cryst.   s( 5) = (     0          1          0      )
                  (    -1         -1          0      )
                  (     0          0          1      )

 cart.    s( 5) = ( -0.5000000 -0.8660254  0.0000000 )
                  (  0.8660254 -0.5000000  0.0000000 )
                  (  0.0000000  0.0000000  1.0000000 )


      isym =  6     120 deg rotation - cryst. axis [0,0,-1]      

 cryst.   s( 6) = (    -1         -1          0      )
                  (     1          0          0      )
                  (     0          0          1      )

 cart.    s( 6) = ( -0.5000000  0.8660254  0.0000000 )
                  ( -0.8660254 -0.5000000  0.0000000 )
                  (  0.0000000  0.0000000  1.0000000 )


      isym =  7     inv. 180 deg rotation - cart. axis [0,1,0]   

 cryst.   s( 7) = (     1          0          0      )    f =(  0.0000000 )
                  (    -1         -1          0      )       (  0.0000000 )
                  (     0          0          1      )       ( -0.5000000 )

 cart.    s( 7) = (  1.0000000  0.0000000  0.0000000 )    f =(  0.0000000 )
                  (  0.0000000 -1.0000000  0.0000000 )       (  0.0000000 )
                  (  0.0000000  0.0000000  1.0000000 )       ( -2.6000000 )


      isym =  8     inv. 180 deg rotation - cart. axis [1,0,0]   

 cryst.   s( 8) = (    -1          0          0      )
                  (     1          1          0      )
                  (     0          0          1      )

 cart.    s( 8) = ( -1.0000000  0.0000000  0.0000000 )
                  (  0.0000000  1.0000000  0.0000000 )
                  (  0.0000000  0.0000000  1.0000000 )


      isym =  9     inv. 180 deg rotation - cryst. axis [1,-1,0] 

 cryst.   s( 9) = (     0          1          0      )    f =(  0.0000000 )
                  (     1          0          0      )       (  0.0000000 )
                  (     0          0          1      )       ( -0.5000000 )

 cart.    s( 9) = ( -0.5000000  0.8660254  0.0000000 )    f =(  0.0000000 )
                  (  0.8660254  0.5000000  0.0000000 )       (  0.0000000 )
                  (  0.0000000  0.0000000  1.0000000 )       ( -2.6000000 )


      isym = 10     inv. 180 deg rotation - cryst. axis [2,1,0]  

 cryst.   s(10) = (    -1         -1          0      )    f =(  0.0000000 )
                  (     0          1          0      )       (  0.0000000 )
                  (     0          0          1      )       ( -0.5000000 )

 cart.    s(10) = ( -0.5000000 -0.8660254  0.0000000 )    f =(  0.0000000 )
                  ( -0.8660254  0.5000000  0.0000000 )       (  0.0000000 )
                  (  0.0000000  0.0000000  1.0000000 )       ( -2.6000000 )


      isym = 11     inv. 180 deg rotation - cryst. axis [0,1,0]  

 cryst.   s(11) = (     1          1          0      )
                  (     0         -1          0      )
                  (     0          0          1      )

 cart.    s(11) = (  0.5000000  0.8660254  0.0000000 )
                  (  0.8660254 -0.5000000  0.0000000 )
                  (  0.0000000  0.0000000  1.0000000 )


      isym = 12     inv. 180 deg rotation - cryst. axis [1,1,0]  

 cryst.   s(12) = (     0         -1          0      )
                  (    -1          0          0      )
                  (     0          0          1      )

 cart.    s(12) = (  0.5000000 -0.8660254  0.0000000 )
                  ( -0.8660254 -0.5000000  0.0000000 )
                  (  0.0000000  0.0000000  1.0000000 )


     point group C_6v (6mm) 
     there are  6 classes
     the character table:

       E     2C6   2C3   C2    3s_v  3s_d 
A_1    1.00  1.00  1.00  1.00  1.00  1.00
A_2    1.00  1.00  1.00  1.00 -1.00 -1.00
B_1    1.00 -1.00  1.00 -1.00  1.00 -1.00
B_2    1.00 -1.00  1.00 -1.00 -1.00  1.00
E_1    2.00  1.00 -1.00 -2.00  0.00  0.00
E_2    2.00 -1.00 -1.00  2.00  0.00  0.00

     the symmetry operations in each class:
     E        1
     C2       2
     2C6      3    4
     2C3      5    6
     3s_v     7    9   10
     3s_d     8   12   11

   Cartesian axes

     site n.     atom                  positions (alat units)
         1           Zn  tau(   1) = (   1.6250000   0.9381942   0.0000000  )
         2           Zn  tau(   2) = (   0.0000000   1.8763884   2.6000000  )
         3           O   tau(   3) = (   1.6250000   0.9381942   3.2136000  )
         4           O   tau(   4) = (   0.0000000   1.8763884   0.6136000  )

   Crystallographic axes

     site n.     atom                  positions (cryst. coord.)
         1           Zn  tau(   1) = (  0.6666667  0.3333333  0.0000000  )
         2           Zn  tau(   2) = (  0.3333333  0.6666667  0.5000000  )
         3           O   tau(   3) = (  0.6666667  0.3333333  0.6180000  )
         4           O   tau(   4) = (  0.3333333  0.6666667  0.1180000  )

     number of k points=    72
                       cart. coord. in units 2pi/alat
        k(    1) = (   0.1149425   0.1562063   0.0000000), wk =   0.0277778
        k(    2) = (   0.1131742   0.1592691   0.0000000), wk =   0.0277778
        k(    3) = (   0.1114058   0.1623319   0.0000000), wk =   0.0277778
        k(    4) = (   0.1096375   0.1653947   0.0000000), wk =   0.0277778
        k(    5) = (   0.1078692   0.1684578   0.0000000), wk =   0.0277778
        k(    6) = (   0.1061009   0.1715206   0.0000000), wk =   0.0277778
        k(    7) = (   0.1043323   0.1745833   0.0000000), wk =   0.0277778
        k(    8) = (   0.1025640   0.1776461   0.0000000), wk =   0.0277778
        k(    9) = (   0.1007957   0.1745833   0.0000000), wk =   0.0277778
        k(   10) = (   0.0990274   0.1715205   0.0000000), wk =   0.0277778
        k(   11) = (   0.0972591   0.1684577   0.0000000), wk =   0.0277778
        k(   12) = (   0.0954908   0.1653949   0.0000000), wk =   0.0277778
        k(   13) = (   0.0937225   0.1623321   0.0000000), wk =   0.0277778
        k(   14) = (   0.0919542   0.1592693   0.0000000), wk =   0.0277778
        k(   15) = (   0.0901855   0.1562059   0.0000000), wk =   0.0277778
        k(   16) = (   0.0884172   0.1531431   0.0000000), wk =   0.0277778
        k(   17) = (   0.0866489   0.1500803   0.0000000), wk =   0.0277778
        k(   18) = (   0.0848806   0.1470175   0.0000000), wk =   0.0277778
        k(   19) = (   0.0831123   0.1439547   0.0000000), wk =   0.0277778
        k(   20) = (   0.0813440   0.1408919   0.0000000), wk =   0.0277778
        k(   21) = (   0.0795757   0.1378291   0.0000000), wk =   0.0277778
        k(   22) = (   0.0778074   0.1347663   0.0000000), wk =   0.0277778
        k(   23) = (   0.0760388   0.1317030   0.0000000), wk =   0.0277778
        k(   24) = (   0.0742705   0.1286402   0.0000000), wk =   0.0277778
        k(   25) = (   0.0725022   0.1255774   0.0000000), wk =   0.0277778
        k(   26) = (   0.0707338   0.1225146   0.0000000), wk =   0.0277778
        k(   27) = (   0.0689655   0.1194518   0.0000000), wk =   0.0277778
        k(   28) = (   0.0671972   0.1163890   0.0000000), wk =   0.0277778
        k(   29) = (   0.0654289   0.1133262   0.0000000), wk =   0.0277778
        k(   30) = (   0.0636606   0.1102634   0.0000000), wk =   0.0277778
        k(   31) = (   0.0618920   0.1072001   0.0000000), wk =   0.0277778
        k(   32) = (   0.0601237   0.1041373   0.0000000), wk =   0.0277778
        k(   33) = (   0.0583554   0.1010745   0.0000000), wk =   0.0277778
        k(   34) = (   0.0565871   0.0980117   0.0000000), wk =   0.0277778
        k(   35) = (   0.0548188   0.0949489   0.0000000), wk =   0.0277778
        k(   36) = (   0.0530505   0.0918861   0.0000000), wk =   0.0277778
        k(   37) = (   0.0512822   0.0888233   0.0000000), wk =   0.0277778
        k(   38) = (   0.0495138   0.0857605   0.0000000), wk =   0.0277778
        k(   39) = (   0.0477452   0.0826972   0.0000000), wk =   0.0277778
        k(   40) = (   0.0459769   0.0796344   0.0000000), wk =   0.0277778
        k(   41) = (   0.0442086   0.0765716   0.0000000), wk =   0.0277778
        k(   42) = (   0.0424403   0.0735088   0.0000000), wk =   0.0277778
        k(   43) = (   0.0406720   0.0704460   0.0000000), wk =   0.0277778
        k(   44) = (   0.0389037   0.0673832   0.0000000), wk =   0.0277778
        k(   45) = (   0.0371354   0.0643204   0.0000000), wk =   0.0277778
        k(   46) = (   0.0353671   0.0612576   0.0000000), wk =   0.0277778
        k(   47) = (   0.0335985   0.0581942   0.0000000), wk =   0.0277778
        k(   48) = (   0.0318302   0.0551314   0.0000000), wk =   0.0277778
        k(   49) = (   0.0300618   0.0520686   0.0000000), wk =   0.0277778
        k(   50) = (   0.0282935   0.0490058   0.0000000), wk =   0.0277778
        k(   51) = (   0.0265252   0.0459430   0.0000000), wk =   0.0277778
        k(   52) = (   0.0247569   0.0428802   0.0000000), wk =   0.0277778
        k(   53) = (   0.0229886   0.0398174   0.0000000), wk =   0.0277778
        k(   54) = (   0.0212203   0.0367547   0.0000000), wk =   0.0277778
        k(   55) = (   0.0194517   0.0336913   0.0000000), wk =   0.0277778
        k(   56) = (   0.0176834   0.0306285   0.0000000), wk =   0.0277778
        k(   57) = (   0.0159151   0.0275657   0.0000000), wk =   0.0277778
        k(   58) = (   0.0141468   0.0245029   0.0000000), wk =   0.0277778
        k(   59) = (   0.0123785   0.0214401   0.0000000), wk =   0.0277778
        k(   60) = (   0.0106102   0.0183773   0.0000000), wk =   0.0277778
        k(   61) = (   0.0088418   0.0153145   0.0000000), wk =   0.0277778
        k(   62) = (   0.0070735   0.0122517   0.0000000), wk =   0.0277778
        k(   63) = (   0.0053049   0.0091884   0.0000000), wk =   0.0277778
        k(   64) = (   0.0035366   0.0061256   0.0000000), wk =   0.0277778
        k(   65) = (   0.0017683   0.0030628   0.0000000), wk =   0.0277778
        k(   66) = (   0.0000000   0.0000000   0.0000000), wk =   0.0277778
        k(   67) = (   0.0000000   0.0000000   0.0035613), wk =   0.0277778
        k(   68) = (   0.0000000   0.0000000   0.0071225), wk =   0.0277778
        k(   69) = (   0.0000000   0.0000000   0.0106838), wk =   0.0277778
        k(   70) = (   0.0000000   0.0000000   0.0142450), wk =   0.0277778
        k(   71) = (   0.0000000   0.0000000   0.0178063), wk =   0.0277778
        k(   72) = (   0.0000000   0.0000000   0.0213675), wk =   0.0277778

                       cryst. coord.
        k(    1) = (   0.3735630   0.2528740   0.0000000), wk =   0.0277778
        k(    2) = (   0.3678160   0.2643680   0.0000000), wk =   0.0277778
        k(    3) = (   0.3620690   0.2758620   0.0000000), wk =   0.0277778
        k(    4) = (   0.3563220   0.2873560   0.0000000), wk =   0.0277778
        k(    5) = (   0.3505750   0.2988510   0.0000000), wk =   0.0277778
        k(    6) = (   0.3448280   0.3103450   0.0000000), wk =   0.0277778
        k(    7) = (   0.3390800   0.3218390   0.0000000), wk =   0.0277778
        k(    8) = (   0.3333330   0.3333330   0.0000000), wk =   0.0277778
        k(    9) = (   0.3275860   0.3275860   0.0000000), wk =   0.0277778
        k(   10) = (   0.3218390   0.3218390   0.0000000), wk =   0.0277778
        k(   11) = (   0.3160920   0.3160920   0.0000000), wk =   0.0277778
        k(   12) = (   0.3103450   0.3103450   0.0000000), wk =   0.0277778
        k(   13) = (   0.3045980   0.3045980   0.0000000), wk =   0.0277778
        k(   14) = (   0.2988510   0.2988510   0.0000000), wk =   0.0277778
        k(   15) = (   0.2931030   0.2931030   0.0000000), wk =   0.0277778
        k(   16) = (   0.2873560   0.2873560   0.0000000), wk =   0.0277778
        k(   17) = (   0.2816090   0.2816090   0.0000000), wk =   0.0277778
        k(   18) = (   0.2758620   0.2758620   0.0000000), wk =   0.0277778
        k(   19) = (   0.2701150   0.2701150   0.0000000), wk =   0.0277778
        k(   20) = (   0.2643680   0.2643680   0.0000000), wk =   0.0277778
        k(   21) = (   0.2586210   0.2586210   0.0000000), wk =   0.0277778
        k(   22) = (   0.2528740   0.2528740   0.0000000), wk =   0.0277778
        k(   23) = (   0.2471260   0.2471260   0.0000000), wk =   0.0277778
        k(   24) = (   0.2413790   0.2413790   0.0000000), wk =   0.0277778
        k(   25) = (   0.2356320   0.2356320   0.0000000), wk =   0.0277778
        k(   26) = (   0.2298850   0.2298850   0.0000000), wk =   0.0277778
        k(   27) = (   0.2241380   0.2241380   0.0000000), wk =   0.0277778
        k(   28) = (   0.2183910   0.2183910   0.0000000), wk =   0.0277778
        k(   29) = (   0.2126440   0.2126440   0.0000000), wk =   0.0277778
        k(   30) = (   0.2068970   0.2068970   0.0000000), wk =   0.0277778
        k(   31) = (   0.2011490   0.2011490   0.0000000), wk =   0.0277778
        k(   32) = (   0.1954020   0.1954020   0.0000000), wk =   0.0277778
        k(   33) = (   0.1896550   0.1896550   0.0000000), wk =   0.0277778
        k(   34) = (   0.1839080   0.1839080   0.0000000), wk =   0.0277778
        k(   35) = (   0.1781610   0.1781610   0.0000000), wk =   0.0277778
        k(   36) = (   0.1724140   0.1724140   0.0000000), wk =   0.0277778
        k(   37) = (   0.1666670   0.1666670   0.0000000), wk =   0.0277778
        k(   38) = (   0.1609200   0.1609200   0.0000000), wk =   0.0277778
        k(   39) = (   0.1551720   0.1551720   0.0000000), wk =   0.0277778
        k(   40) = (   0.1494250   0.1494250   0.0000000), wk =   0.0277778
        k(   41) = (   0.1436780   0.1436780   0.0000000), wk =   0.0277778
        k(   42) = (   0.1379310   0.1379310   0.0000000), wk =   0.0277778
        k(   43) = (   0.1321840   0.1321840   0.0000000), wk =   0.0277778
        k(   44) = (   0.1264370   0.1264370   0.0000000), wk =   0.0277778
        k(   45) = (   0.1206900   0.1206900   0.0000000), wk =   0.0277778
        k(   46) = (   0.1149430   0.1149430   0.0000000), wk =   0.0277778
        k(   47) = (   0.1091950   0.1091950   0.0000000), wk =   0.0277778
        k(   48) = (   0.1034480   0.1034480   0.0000000), wk =   0.0277778
        k(   49) = (   0.0977010   0.0977010   0.0000000), wk =   0.0277778
        k(   50) = (   0.0919540   0.0919540   0.0000000), wk =   0.0277778
        k(   51) = (   0.0862070   0.0862070   0.0000000), wk =   0.0277778
        k(   52) = (   0.0804600   0.0804600   0.0000000), wk =   0.0277778
        k(   53) = (   0.0747130   0.0747130   0.0000000), wk =   0.0277778
        k(   54) = (   0.0689660   0.0689660   0.0000000), wk =   0.0277778
        k(   55) = (   0.0632180   0.0632180   0.0000000), wk =   0.0277778
        k(   56) = (   0.0574710   0.0574710   0.0000000), wk =   0.0277778
        k(   57) = (   0.0517240   0.0517240   0.0000000), wk =   0.0277778
        k(   58) = (   0.0459770   0.0459770   0.0000000), wk =   0.0277778
        k(   59) = (   0.0402300   0.0402300   0.0000000), wk =   0.0277778
        k(   60) = (   0.0344830   0.0344830   0.0000000), wk =   0.0277778
        k(   61) = (   0.0287360   0.0287360   0.0000000), wk =   0.0277778
        k(   62) = (   0.0229890   0.0229890   0.0000000), wk =   0.0277778
        k(   63) = (   0.0172410   0.0172410   0.0000000), wk =   0.0277778
        k(   64) = (   0.0114940   0.0114940   0.0000000), wk =   0.0277778
        k(   65) = (   0.0057470   0.0057470   0.0000000), wk =   0.0277778
        k(   66) = (   0.0000000   0.0000000   0.0000000), wk =   0.0277778
        k(   67) = (   0.0000000   0.0000000   0.0185190), wk =   0.0277778
        k(   68) = (   0.0000000   0.0000000   0.0370370), wk =   0.0277778
        k(   69) = (   0.0000000   0.0000000   0.0555560), wk =   0.0277778
        k(   70) = (   0.0000000   0.0000000   0.0740740), wk =   0.0277778
        k(   71) = (   0.0000000   0.0000000   0.0925930), wk =   0.0277778
        k(   72) = (   0.0000000   0.0000000   0.1111110), wk =   0.0277778

     Dense  grid:   346889 G-vectors     FFT dimensions: (  80,  80, 128)

     Largest allocated arrays     est. size (Mb)     dimensions
        Kohn-Sham Wavefunctions         0.27 Mb     (    688,   26)
        NL pseudopotentials             0.10 Mb     (    688,   10)
        Each V/rho on FFT grid          0.20 Mb     (  12800)
        Each G-vector array             0.04 Mb     (   5421)
        G-vector shells                 0.02 Mb     (   2479)
     Largest temporary arrays     est. size (Mb)     dimensions
        Auxiliary wavefunctions         1.09 Mb     (    688,  104)
        Each subspace H/S matrix        0.01 Mb     (  20,  20)
        Each <psi_i|beta_j> matrix      0.00 Mb     (     10,   26)
     writing wfc files to a dedicated directory

     Check: negative/imaginary core charge=   -0.000103    0.000000

     The potential is recalculated from file :
     ./Zn2O2.save/charge-density.dat

     Starting wfc are   34 randomized atomic wfcs

     total cpu time spent up to now is        2.4 secs

     per-process dynamical memory:     8.7 Mb

     Band Structure Calculation
     Davidson diagonalization with overlap

     Computing kpt #:     1
     total cpu time spent up to now is        4.2 secs

     Computing kpt #:     2
     total cpu time spent up to now is        5.8 secs

     Computing kpt #:     3
     total cpu time spent up to now is        7.5 secs

     Computing kpt #:     4
     total cpu time spent up to now is        9.2 secs

     Computing kpt #:     5
     total cpu time spent up to now is       13.7 secs

     Computing kpt #:     6
     total cpu time spent up to now is       15.5 secs

     Computing kpt #:     7
     total cpu time spent up to now is       17.6 secs

     Computing kpt #:     8
     total cpu time spent up to now is       19.5 secs

     Computing kpt #:     9
     total cpu time spent up to now is       21.2 secs

     Computing kpt #:    10
     total cpu time spent up to now is       24.1 secs

     Computing kpt #:    11
     total cpu time spent up to now is       26.2 secs

     Computing kpt #:    12
     total cpu time spent up to now is       28.6 secs

     Computing kpt #:    13
     total cpu time spent up to now is       31.2 secs

     Computing kpt #:    14
     total cpu time spent up to now is       33.5 secs

     Computing kpt #:    15
     total cpu time spent up to now is       35.7 secs

     Computing kpt #:    16
     total cpu time spent up to now is       37.9 secs

     Computing kpt #:    17
     total cpu time spent up to now is       41.7 secs

     Computing kpt #:    18
     total cpu time spent up to now is       43.7 secs

     Computing kpt #:    19
     total cpu time spent up to now is       76.0 secs

     Computing kpt #:    20
     total cpu time spent up to now is       77.9 secs

     Computing kpt #:    21
     total cpu time spent up to now is       80.0 secs

     Computing kpt #:    22
     total cpu time spent up to now is       81.7 secs

     Computing kpt #:    23
     total cpu time spent up to now is       84.5 secs

     Computing kpt #:    24
     total cpu time spent up to now is       87.4 secs

     Computing kpt #:    25
     total cpu time spent up to now is       92.4 secs

     Computing kpt #:    26
     total cpu time spent up to now is       94.6 secs

     Computing kpt #:    27
     total cpu time spent up to now is       96.8 secs

     Computing kpt #:    28
     total cpu time spent up to now is       99.4 secs

     Computing kpt #:    29
     total cpu time spent up to now is      101.4 secs

     Computing kpt #:    30
     total cpu time spent up to now is      103.5 secs

     Computing kpt #:    31
     total cpu time spent up to now is      105.7 secs

     Computing kpt #:    32
     total cpu time spent up to now is      108.7 secs

     Computing kpt #:    33
     total cpu time spent up to now is      110.6 secs

     Computing kpt #:    34
     total cpu time spent up to now is      113.0 secs

     Computing kpt #:    35
     total cpu time spent up to now is      116.0 secs

     Computing kpt #:    36
     total cpu time spent up to now is      117.8 secs

     Computing kpt #:    37
     total cpu time spent up to now is      120.5 secs

     Computing kpt #:    38
     total cpu time spent up to now is      122.7 secs

     Computing kpt #:    39
     total cpu time spent up to now is      124.8 secs

     Computing kpt #:    40
     total cpu time spent up to now is      126.7 secs

     Computing kpt #:    41
     total cpu time spent up to now is      129.0 secs

     Computing kpt #:    42
     total cpu time spent up to now is      131.2 secs

     Computing kpt #:    43
     total cpu time spent up to now is      133.2 secs

     Computing kpt #:    44
     total cpu time spent up to now is      135.4 secs

     Computing kpt #:    45
     total cpu time spent up to now is      137.3 secs

     Computing kpt #:    46
     total cpu time spent up to now is      139.3 secs

     Computing kpt #:    47
     total cpu time spent up to now is      141.8 secs

     Computing kpt #:    48
     total cpu time spent up to now is      143.9 secs

     Computing kpt #:    49
     total cpu time spent up to now is      146.5 secs

     Computing kpt #:    50
     total cpu time spent up to now is      148.8 secs

     Computing kpt #:    51
     total cpu time spent up to now is      150.6 secs

     Computing kpt #:    52
     total cpu time spent up to now is      152.9 secs

     Computing kpt #:    53
     total cpu time spent up to now is      154.8 secs

     Computing kpt #:    54
     total cpu time spent up to now is      156.8 secs

     Computing kpt #:    55
     total cpu time spent up to now is      158.8 secs

     Computing kpt #:    56
     total cpu time spent up to now is      161.2 secs

     Computing kpt #:    57
     total cpu time spent up to now is      164.6 secs

     Computing kpt #:    58
     total cpu time spent up to now is      166.9 secs

     Computing kpt #:    59
     total cpu time spent up to now is      169.2 secs

     Computing kpt #:    60
     total cpu time spent up to now is      171.7 secs

     Computing kpt #:    61
     total cpu time spent up to now is      174.4 secs

     Computing kpt #:    62
     total cpu time spent up to now is      176.3 secs

     Computing kpt #:    63
     total cpu time spent up to now is      178.7 secs

     Computing kpt #:    64
     total cpu time spent up to now is      181.4 secs

     Computing kpt #:    65
     total cpu time spent up to now is      183.7 secs

     Computing kpt #:    66
     total cpu time spent up to now is      186.1 secs

     Computing kpt #:    67
     total cpu time spent up to now is      188.0 secs

     Computing kpt #:    68
     total cpu time spent up to now is      190.9 secs

     Computing kpt #:    69
     total cpu time spent up to now is      193.4 secs

     Computing kpt #:    70
     total cpu time spent up to now is      196.2 secs

     Computing kpt #:    71
     total cpu time spent up to now is      198.6 secs

     Computing kpt #:    72
     total cpu time spent up to now is      201.5 secs

     ethr =  1.92E-13,  avg # of iterations = 17.7

     total cpu time spent up to now is      201.5 secs

     End of band structure calculation

          k = 0.1149 0.1562 0.0000     band energies (ev):

  -114.1637-114.1637 -68.8280 -68.8276 -68.8188 -68.8185 -68.8183 -68.8176
    -8.4487  -8.3501   2.6691   2.9811   3.1409   3.2844   3.5907   3.6291
     3.8463   3.9141   4.0786   4.1081   4.7965   4.8317   5.0091   6.2824
     6.7175   6.9497

          k = 0.1132 0.1593 0.0000     band energies (ev):

  -114.1637-114.1637 -68.8280 -68.8276 -68.8188 -68.8185 -68.8184 -68.8177
    -8.4401  -8.3542   2.6735   2.9915   3.1301   3.3222   3.6085   3.6445
     3.8404   3.9129   4.0627   4.0840   4.7823   4.8111   5.0029   6.3183
     6.6968   6.9050

          k = 0.1114 0.1623 0.0000     band energies (ev):

  -114.1637-114.1637 -68.8280 -68.8277 -68.8188 -68.8185 -68.8184 -68.8177
    -8.4315  -8.3587   2.6769   3.0028   3.1191   3.3564   3.6272   3.6627
     3.8339   3.9129   4.0460   4.0557   4.7462   4.8210   4.9938   6.3560
     6.6793   6.8600

          k = 0.1096 0.1654 0.0000     band energies (ev):

  -114.1637-114.1637 -68.8280 -68.8277 -68.8188 -68.8185 -68.8184 -68.8177
    -8.4229  -8.3638   2.6793   3.0147   3.1081   3.3855   3.6466   3.6839
     3.8266   3.9144   4.0246   4.0283   4.7160   4.8340   4.9818   6.3952
     6.6645   6.8155

          k = 0.1079 0.1685 0.0000     band energies (ev):

  -114.1637-114.1637 -68.8279 -68.8277 -68.8187 -68.8185 -68.8185 -68.8177
    -8.4145  -8.3695   2.6810   3.0269   3.0970   3.4086   3.6667   3.7066
     3.8180   3.9175   3.9936   4.0097   4.6928   4.8490   4.9671   6.4359
     6.6505   6.7733

          k = 0.1061 0.1715 0.0000     band energies (ev):

  -114.1637-114.1637 -68.8279 -68.8278 -68.8187 -68.8185 -68.8185 -68.8178
    -8.4062  -8.3758   2.6820   3.0392   3.0859   3.4253   3.6872   3.7273
     3.8077   3.9224   3.9677   3.9905   4.6765   4.8663   4.9496   6.4778
     6.6329   6.7381

          k = 0.1043 0.1746 0.0000     band energies (ev):

  -114.1637-114.1637 -68.8279 -68.8278 -68.8187 -68.8185 -68.8185 -68.8178
    -8.3980  -8.3826   2.6826   3.0513   3.0746   3.4354   3.7077   3.7377
     3.7982   3.9291   3.9530   3.9709   4.6669   4.8858   4.9297   6.5209
     6.6050   6.7166

          k = 0.1026 0.1776 0.0000     band energies (ev):

  -114.1637-114.1637 -68.8278 -68.8278 -68.8187 -68.8185 -68.8185 -68.8178
    -8.3901  -8.3901   2.6827   3.0632   3.0632   3.4388   3.7278   3.7278
     3.7952   3.9347   3.9545   3.9545   4.6637   4.9076   4.9076   6.5650
     6.5650   6.7104

          k = 0.1008 0.1746 0.0000     band energies (ev):

  -114.1637-114.1637 -68.8279 -68.8278 -68.8187 -68.8185 -68.8185 -68.8178
    -8.3982  -8.3824   2.6826   3.0514   3.0745   3.4353   3.7026   3.7469
     3.7956   3.9229   3.9580   3.9708   4.6670   4.8836   4.9320   6.5174
     6.6100   6.7150

          k = 0.0990 0.1715 0.0000     band energies (ev):

  -114.1637-114.1637 -68.8279 -68.8278 -68.8187 -68.8185 -68.8184 -68.8178
    -8.4070  -8.3750   2.6823   3.0392   3.0851   3.4241   3.6734   3.7645
     3.7944   3.9024   3.9736   3.9960   4.6767   4.8580   4.9590   6.4657
     6.6559   6.7267

          k = 0.0973 0.1685 0.0000     band energies (ev):

  -114.1637-114.1637 -68.8279 -68.8277 -68.8187 -68.8185 -68.8184 -68.8178
    -8.4165  -8.3680   2.6819   3.0263   3.0951   3.4050   3.6463   3.7798
     3.7917   3.8809   3.9940   4.0244   4.6933   4.8311   4.9888   6.4117
     6.7024   6.7436

          k = 0.0955 0.1654 0.0000     band energies (ev):

  -114.1637-114.1637 -68.8280 -68.8277 -68.8187 -68.8185 -68.8184 -68.8177
    -8.4267  -8.3613   2.6814   3.0126   3.1042   3.3785   3.6237   3.7881
     3.7915   3.8606   4.0185   4.0523   4.7168   4.8031   5.0214   6.3563
     6.7496   6.7648

          k = 0.0937 0.1623 0.0000     band energies (ev):

  -114.1637-114.1637 -68.8280 -68.8276 -68.8187 -68.8185 -68.8183 -68.8177
    -8.4377  -8.3550   2.6810   2.9978   3.1124   3.3464   3.6060   3.7841
     3.7960   3.8454   4.0466   4.0774   4.7474   4.7745   5.0571   6.2999
     6.7897   6.7972

          k = 0.0920 0.1593 0.0000     band energies (ev):

  -114.1637-114.1637 -68.8280 -68.8276 -68.8187 -68.8186 -68.8183 -68.8177
    -8.4493  -8.3492   2.6806   2.9814   3.1196   3.3111   3.5921   3.7799
     3.7874   3.8416   4.0781   4.0987   4.7453   4.7845   5.0960   6.2430
     6.8178   6.8452

          k = 0.0902 0.1562 0.0000     band energies (ev):

  -114.1637-114.1637 -68.8281 -68.8276 -68.8188 -68.8186 -68.8183 -68.8177
    -8.4617  -8.3438   2.6803   2.9633   3.1258   3.2750   3.5806   3.7689
     3.7757   3.8463   4.1124   4.1156   4.7160   4.8277   5.1384   6.1860
     6.8488   6.8935

          k = 0.0884 0.1531 0.0000     band energies (ev):

  -114.1637-114.1637 -68.8281 -68.8275 -68.8188 -68.8186 -68.8182 -68.8176
    -8.4749  -8.3390   2.6802   2.9430   3.1310   3.2401   3.5705   3.7469
     3.7716   3.8535   4.1284   4.1490   4.6867   4.8759   5.1846   6.1290
     6.8823   6.9420

          k = 0.0866 0.1501 0.0000     band energies (ev):

  -114.1637-114.1637 -68.8282 -68.8275 -68.8188 -68.8186 -68.8182 -68.8176
    -8.4888  -8.3346   2.6802   2.9204   3.1350   3.2076   3.5610   3.7239
     3.7676   3.8612   4.1375   4.1873   4.6575   4.9279   5.2347   6.0725
     6.9180   6.9907

          k = 0.0849 0.1470 0.0000     band energies (ev):

  -114.1637-114.1637 -68.8282 -68.8275 -68.8187 -68.8186 -68.8182 -68.8176
    -8.5034  -8.3307   2.6804   2.8954   3.1378   3.1783   3.5515   3.7009
     3.7638   3.8688   4.1435   4.2270   4.6288   4.9826   5.2891   6.0169
     6.9557   7.0393

          k = 0.0831 0.1440 0.0000     band energies (ev):

  -114.1637-114.1637 -68.8283 -68.8274 -68.8187 -68.8186 -68.8181 -68.8175
    -8.5187  -8.3275   2.6808   2.8683   3.1394   3.1526   3.5418   3.6781
     3.7602   3.8760   4.1470   4.2674   4.6006   5.0392   5.3478   5.9625
     6.9952   7.0878

          k = 0.0813 0.1409 0.0000     band energies (ev):

  -114.1637-114.1637 -68.8283 -68.8274 -68.8187 -68.8186 -68.8181 -68.8175
    -8.5347  -8.3248   2.6815   2.8396   3.1304   3.1397   3.5315   3.6560
     3.7569   3.8828   4.1484   4.3081   4.5733   5.0968   5.4107   5.9098
     7.0362   7.1362

          k = 0.0796 0.1378 0.0000     band energies (ev):

  -114.1637-114.1637 -68.8283 -68.8273 -68.8187 -68.8186 -68.8180 -68.8175
    -8.5514  -8.3226   2.6823   2.8100   3.1111   3.1385   3.5206   3.6347
     3.7539   3.8892   4.1484   4.3483   4.5472   5.1548   5.4778   5.8594
     7.0787   7.1844

          k = 0.0778 0.1348 0.0000     band energies (ev):

  -114.1637-114.1637 -68.8284 -68.8273 -68.8187 -68.8186 -68.8180 -68.8174
    -8.5689  -8.3211   2.6834   2.7801   3.0945   3.1360   3.5089   3.6144
     3.7512   3.8951   4.1473   4.3868   4.5229   5.2131   5.5487   5.8119
     7.1223   7.2322

          k = 0.0760 0.1317 0.0000     band energies (ev):

  -114.1637-114.1637 -68.8284 -68.8273 -68.8187 -68.8186 -68.8180 -68.8174
    -8.5869  -8.3201   2.6848   2.7504   3.0799   3.1320   3.4964   3.5951
     3.7487   3.9004   4.1454   4.4208   4.5028   5.2716   5.6230   5.7680
     7.1669   7.2797

          k = 0.0743 0.1286 0.0000     band energies (ev):

  -114.1637-114.1637 -68.8285 -68.8272 -68.8186 -68.8186 -68.8179 -68.8174
    -8.6056  -8.3198   2.6864   2.7217   3.0669   3.1266   3.4830   3.5769
     3.7467   3.9050   4.1430   4.4398   4.4970   5.3304   5.7000   5.7284
     7.2123   7.3266

          k = 0.0725 0.1256 0.0000     band energies (ev):

  -114.1637-114.1637 -68.8285 -68.8272 -68.8186 -68.8186 -68.8179 -68.8173
    -8.6248  -8.3200   2.6882   2.6941   3.0552   3.1197   3.4688   3.5598
     3.7449   3.9089   4.1402   4.4327   4.5157   5.3895   5.6942   5.7793
     7.2585   7.3731

          k = 0.0707 0.1225 0.0000     band energies (ev):

  -114.1638-114.1637 -68.8286 -68.8272 -68.8186 -68.8186 -68.8179 -68.8173
    -8.6446  -8.3209   2.6681   2.6903   3.0446   3.1114   3.4537   3.5437
     3.7436   3.9119   4.1373   4.4158   4.5419   5.4492   5.6664   5.8604
     7.3052   7.4190

          k = 0.0690 0.1195 0.0000     band energies (ev):

  -114.1638-114.1637 -68.8286 -68.8271 -68.8186 -68.8185 -68.8178 -68.8173
    -8.6650  -8.3223   2.6439   2.6927   3.0346   3.1019   3.4379   3.5285
     3.7426   3.9141   4.1342   4.3977   4.5662   5.5096   5.6460   5.9427
     7.3524   7.4642

          k = 0.0672 0.1164 0.0000     band energies (ev):

  -114.1638-114.1637 -68.8286 -68.8271 -68.8186 -68.8185 -68.8178 -68.8172
    -8.6857  -8.3243   2.6216   2.6953   3.0253   3.0913   3.4213   3.5139
     3.7420   3.9152   4.1312   4.3805   4.5859   5.5709   5.6339   6.0258
     7.3998   7.5087

          k = 0.0654 0.1133 0.0000     band energies (ev):

  -114.1638-114.1637 -68.8287 -68.8271 -68.8185 -68.8185 -68.8178 -68.8172
    -8.7070  -8.3268   2.6013   2.6981   3.0164   3.0796   3.4039   3.4997
     3.7418   3.9153   4.1283   4.3647   4.5998   5.6310   5.6331   6.1093
     7.4473   7.5524

          k = 0.0637 0.1103 0.0000     band energies (ev):

  -114.1638-114.1637 -68.8287 -68.8270 -68.8185 -68.8184 -68.8177 -68.8172
    -8.7285  -8.3299   2.5832   2.7012   3.0079   3.0672   3.3859   3.4857
     3.7420   3.9144   4.1256   4.3506   4.6074   5.6378   5.6964   6.1928
     7.4949   7.5953

          k = 0.0619 0.1072 0.0000     band energies (ev):

  -114.1638-114.1637 -68.8288 -68.8270 -68.8185 -68.8184 -68.8177 -68.8171
    -8.7505  -8.3335   2.5672   2.7045   2.9996   3.0542   3.3673   3.4716
     3.7427   3.9125   4.1229   4.3384   4.6084   5.6542   5.7608   6.2760
     7.5424   7.6374

          k = 0.0601 0.1041 0.0000     band energies (ev):

  -114.1638-114.1637 -68.8288 -68.8270 -68.8185 -68.8183 -68.8176 -68.8171
    -8.7727  -8.3376   2.5533   2.7079   2.9915   3.0408   3.3483   3.4570
     3.7438   3.9096   4.1205   4.3282   4.6035   5.6801   5.8264   6.3586
     7.5896   7.6786

          k = 0.0584 0.1011 0.0000     band energies (ev):

  -114.1638-114.1637 -68.8289 -68.8269 -68.8184 -68.8183 -68.8176 -68.8171
    -8.7951  -8.3421   2.5415   2.7115   2.9835   3.0271   3.3288   3.4418
     3.7452   3.9060   4.1182   4.3199   4.5932   5.7146   5.8932   6.4403
     7.6365   7.7188

          k = 0.0566 0.0980 0.0000     band energies (ev):

  -114.1638-114.1637 -68.8289 -68.8269 -68.8184 -68.8182 -68.8176 -68.8170
    -8.8176  -8.3471   2.5317   2.7153   2.9756   3.0133   3.3089   3.4256
     3.7471   3.9017   4.1160   4.3133   4.5784   5.7569   5.9612   6.5209
     7.6829   7.7581

          k = 0.0548 0.0949 0.0000     band energies (ev):

  -114.1638-114.1637 -68.8289 -68.8269 -68.8183 -68.8181 -68.8175 -68.8170
    -8.8403  -8.3525   2.5240   2.7192   2.9678   2.9996   3.2887   3.4084
     3.7495   3.8971   4.1141   4.3085   4.5602   5.8060   6.0304   6.6001
     7.7288   7.7964

          k = 0.0531 0.0919 0.0000     band energies (ev):

  -114.1638-114.1637 -68.8290 -68.8268 -68.8183 -68.8181 -68.8175 -68.8170
    -8.8630  -8.3582   2.5183   2.7231   2.9601   2.9861   3.2684   3.3899
     3.7521   3.8923   4.1123   4.3052   4.5394   5.8611   6.1008   6.6778
     7.7740   7.8337

          k = 0.0513 0.0888 0.0000     band energies (ev):

  -114.1638-114.1637 -68.8290 -68.8268 -68.8182 -68.8180 -68.8175 -68.8169
    -8.8858  -8.3643   2.5144   2.7270   2.9524   2.9729   3.2480   3.3702
     3.7552   3.8875   4.1106   4.3032   4.5168   5.9213   6.1724   6.7537
     7.8185   7.8699

          k = 0.0495 0.0858 0.0000     band energies (ev):

  -114.1638-114.1637 -68.8291 -68.8268 -68.8182 -68.8180 -68.8174 -68.8169
    -8.9084  -8.3707   2.5123   2.7310   2.9448   2.9602   3.2275   3.3491
     3.7586   3.8829   4.1090   4.3023   4.4932   5.9858   6.2451   6.8277
     7.8620   7.9051

          k = 0.0477 0.0827 0.0000     band energies (ev):

  -114.1638-114.1637 -68.8291 -68.8268 -68.8182 -68.8179 -68.8174 -68.8169
    -8.9309  -8.3773   2.5118   2.7348   2.9371   2.9480   3.2071   3.3268
     3.7624   3.8786   4.1076   4.3021   4.4692   6.0540   6.3190   6.8996
     7.9046   7.9392

          k = 0.0460 0.0796 0.0000     band energies (ev):

  -114.1638-114.1637 -68.8291 -68.8267 -68.8181 -68.8178 -68.8174 -68.8169
    -8.9532  -8.3842   2.5130   2.7384   2.9295   2.9365   3.1868   3.3032
     3.7665   3.8747   4.1062   4.3024   4.4454   6.1252   6.3939   6.9693
     7.9462   7.9722

          k = 0.0442 0.0766 0.0000     band energies (ev):

  -114.1638-114.1637 -68.8292 -68.8267 -68.8180 -68.8178 -68.8173 -68.8168
    -8.9753  -8.3912   2.5156   2.7419   2.9220   2.9257   3.1667   3.2787
     3.7708   3.8714   4.1049   4.3028   4.4224   6.1991   6.4697   7.0368
     7.9866   8.0041

          k = 0.0424 0.0735 0.0000     band energies (ev):

  -114.1638-114.1637 -68.8292 -68.8267 -68.8180 -68.8177 -68.8173 -68.8168
    -8.9970  -8.3984   2.5196   2.7450   2.9145   2.9157   3.1469   3.2533
     3.7754   3.8685   4.1037   4.3026   4.4008   6.2751   6.5464   7.1019
     8.0259   8.0349

          k = 0.0407 0.0704 0.0000     band energies (ev):

  -114.1638-114.1637 -68.8293 -68.8267 -68.8179 -68.8176 -68.8173 -68.8168
    -9.0183  -8.4057   2.5247   2.7477   2.9066   2.9070   3.1275   3.2273
     3.7802   3.8661   4.1025   4.3010   4.3817   6.3528   6.6239   7.1647
     8.0638   8.0645

          k = 0.0389 0.0674 0.0000     band energies (ev):

  -114.1638-114.1637 -68.8293 -68.8266 -68.8179 -68.8176 -68.8172 -68.8168
    -9.0393  -8.4130   2.5310   2.7499   2.8985   2.8996   3.1085   3.2008
     3.7851   3.8642   4.1013   4.2966   4.3665   6.4319   6.7020   7.2251
     8.0930   8.1005

          k = 0.0371 0.0643 0.0000     band energies (ev):

  -114.1638-114.1637 -68.8293 -68.8266 -68.8178 -68.8175 -68.8172 -68.8167
    -9.0597  -8.4204   2.5383   2.7515   2.8914   2.8923   3.0899   3.1740
     3.7903   3.8628   4.1002   4.2879   4.3566   6.5120   6.7806   7.2833
     8.1204   8.1357

          k = 0.0354 0.0613 0.0000     band energies (ev):

  -114.1639-114.1637 -68.8294 -68.8266 -68.8178 -68.8175 -68.8172 -68.8167
    -9.0796  -8.4277   2.5465   2.7525   2.8850   2.8854   3.0719   3.1473
     3.7955   3.8618   4.0991   4.2751   4.3519   6.5928   6.8594   7.3392
     8.1466   8.1694

          k = 0.0336 0.0582 0.0000     band energies (ev):

  -114.1639-114.1637 -68.8294 -68.8266 -68.8177 -68.8174 -68.8171 -68.8167
    -9.0989  -8.4350   2.5553   2.7528   2.8779   2.8805   3.0545   3.1208
     3.8008   3.8611   4.0981   4.2599   4.3507   6.6738   6.9381   7.3932
     8.1716   8.2017

          k = 0.0318 0.0551 0.0000     band energies (ev):

  -114.1639-114.1637 -68.8294 -68.8265 -68.8177 -68.8174 -68.8171 -68.8167
    -9.1175  -8.4421   2.5648   2.7523   2.8708   2.8767   3.0377   3.0948
     3.8061   3.8607   4.0970   4.2437   4.3515   6.7548   7.0164   7.4456
     8.1955   8.2324

          k = 0.0301 0.0521 0.0000     band energies (ev):

  -114.1639-114.1637 -68.8295 -68.8265 -68.8176 -68.8174 -68.8170 -68.8167
    -9.1354  -8.4491   2.5748   2.7510   2.8639   2.8740   3.0217   3.0693
     3.8115   3.8606   4.0960   4.2274   4.3535   6.8353   7.0937   7.4967
     8.2181   8.2614

          k = 0.0283 0.0490 0.0000     band energies (ev):

  -114.1639-114.1637 -68.8295 -68.8265 -68.8176 -68.8173 -68.8170 -68.8166
    -9.1526  -8.4560   2.5850   2.7492   2.8571   2.8721   3.0064   3.0447
     3.8168   3.8607   4.0950   4.2115   4.3559   6.9149   7.1695   7.5472
     8.2395   8.2889

          k = 0.0265 0.0459 0.0000     band energies (ev):

  -114.1639-114.1637 -68.8295 -68.8265 -68.8175 -68.8173 -68.8169 -68.8166
    -9.1690  -8.4626   2.5955   2.7467   2.8505   2.8711   2.9920   3.0210
     3.8220   3.8610   4.0940   4.1963   4.3587   6.9933   7.2427   7.5980
     8.2597   8.3147

          k = 0.0248 0.0429 0.0000     band energies (ev):

  -114.1639-114.1637 -68.8295 -68.8265 -68.8175 -68.8173 -68.8169 -68.8166
    -9.1845  -8.4690   2.6061   2.7438   2.8440   2.8707   2.9784   2.9985
     3.8271   3.8614   4.0930   4.1820   4.3615   7.0700   7.3123   7.6500
     8.2787   8.3387

          k = 0.0230 0.0398 0.0000     band energies (ev):

  -114.1639-114.1637 -68.8296 -68.8265 -68.8174 -68.8172 -68.8168 -68.8166
    -9.1991  -8.4750   2.6167   2.7404   2.8376   2.8708   2.9657   2.9773
     3.8321   3.8619   4.0920   4.1685   4.3644   7.1446   7.3770   7.7045
     8.2964   8.3611

          k = 0.0212 0.0368 0.0000     band energies (ev):

  -114.1639-114.1637 -68.8296 -68.8264 -68.8174 -68.8172 -68.8168 -68.8166
    -9.2129  -8.4808   2.6272   2.7368   2.8315   2.8711   2.9538   2.9576
     3.8368   3.8625   4.0910   4.1561   4.3672   7.2167   7.4355   7.7627
     8.3129   8.3817

          k = 0.0195 0.0337 0.0000     band energies (ev):

  -114.1639-114.1637 -68.8296 -68.8264 -68.8173 -68.8172 -68.8168 -68.8166
    -9.2256  -8.4862   2.6373   2.7331   2.8256   2.8716   2.9396   2.9430
     3.8414   3.8631   4.0901   4.1446   4.3698   7.2857   7.4870   7.8253
     8.3280   8.4006

          k = 0.0177 0.0306 0.0000     band energies (ev):

  -114.1639-114.1637 -68.8296 -68.8264 -68.8173 -68.8172 -68.8167 -68.8166
    -9.2374  -8.4913   2.6471   2.7292   2.8199   2.8719   2.9234   2.9331
     3.8457   3.8638   4.0892   4.1341   4.3723   7.3511   7.5313   7.8925
     8.3419   8.4178

          k = 0.0159 0.0276 0.0000     band energies (ev):

  -114.1639-114.1637 -68.8296 -68.8264 -68.8173 -68.8172 -68.8167 -68.8165
    -9.2481  -8.4959   2.6565   2.7253   2.8145   2.8717   2.9094   2.9241
     3.8496   3.8644   4.0884   4.1246   4.3746   7.4124   7.5687   7.9635
     8.3545   8.4332

          k = 0.0141 0.0245 0.0000     band energies (ev):

  -114.1639-114.1637 -68.8296 -68.8264 -68.8172 -68.8172 -68.8166 -68.8165
    -9.2578  -8.5001   2.6653   2.7215   2.8094   2.8704   2.8984   2.9161
     3.8533   3.8651   4.0876   4.1161   4.3767   7.4692   7.5999   8.0373
     8.3658   8.4468

          k = 0.0124 0.0214 0.0000     band energies (ev):

  -114.1639-114.1637 -68.8297 -68.8264 -68.8172 -68.8172 -68.8166 -68.8165
    -9.2664  -8.5039   2.6734   2.7178   2.8046   2.8668   2.8911   2.9091
     3.8566   3.8657   4.0868   4.1086   4.3785   7.5209   7.6259   8.1127
     8.3758   8.4587

          k = 0.0106 0.0184 0.0000     band energies (ev):

  -114.1639-114.1637 -68.8297 -68.8264 -68.8172 -68.8171 -68.8166 -68.8165
    -9.2739  -8.5072   2.6808   2.7144   2.8003   2.8611   2.8877   2.9030
     3.8596   3.8663   4.0862   4.1021   4.3801   7.5669   7.6472   8.1882
     8.3845   8.4690

          k = 0.0088 0.0153 0.0000     band energies (ev):

  -114.1639-114.1637 -68.8297 -68.8264 -68.8172 -68.8171 -68.8166 -68.8165
    -9.2803  -8.5100   2.6873   2.7113   2.7964   2.8548   2.8864   2.8979
     3.8621   3.8668   4.0856   4.0966   4.3815   7.6069   7.6644   8.2620
     8.3920   8.4775

          k = 0.0071 0.0123 0.0000     band energies (ev):

  -114.1639-114.1637 -68.8297 -68.8264 -68.8172 -68.8171 -68.8165 -68.8165
    -9.2856  -8.5124   2.6929   2.7086   2.7930   2.8490   2.8861   2.8938
     3.8642   3.8672   4.0851   4.0922   4.3827   7.6402   7.6780   8.3316
     8.3986   8.4845

          k = 0.0053 0.0092 0.0000     band energies (ev):

  -114.1639-114.1637 -68.8297 -68.8264 -68.8171 -68.8171 -68.8165 -68.8165
    -9.2896  -8.5142   2.6974   2.7064   2.7902   2.8443   2.8862   2.8906
     3.8659   3.8676   4.0847   4.0887   4.3836   7.6667   7.6883   8.3896
     8.4085   8.4898

          k = 0.0035 0.0061 0.0000     band energies (ev):

  -114.1639-114.1637 -68.8297 -68.8264 -68.8171 -68.8171 -68.8165 -68.8165
    -9.2926  -8.5155   2.7007   2.7047   2.7881   2.8409   2.8863   2.8883
     3.8671   3.8678   4.0844   4.0862   4.3842   7.6858   7.6956   8.4035
     8.4499   8.4936

          k = 0.0018 0.0031 0.0000     band energies (ev):

  -114.1639-114.1637 -68.8297 -68.8264 -68.8171 -68.8171 -68.8165 -68.8165
    -9.2943  -8.5163   2.7027   2.7037   2.7868   2.8388   2.8864   2.8869
     3.8678   3.8680   4.0842   4.0847   4.3846   7.6974   7.6998   8.4063
     8.4842   8.4958

          k = 0.0000 0.0000 0.0000     band energies (ev):

  -114.1639-114.1637 -68.8297 -68.8264 -68.8171 -68.8171 -68.8165 -68.8165
    -9.2949  -8.5166   2.7034   2.7034   2.7864   2.8381   2.8864   2.8864
     3.8680   3.8680   4.0842   4.0842   4.3847   7.7013   7.7013   8.4071
     8.4966   8.4966

          k = 0.0000 0.0000 0.0036     band energies (ev):

  -114.1639-114.1637 -68.8297 -68.8264 -68.8171 -68.8171 -68.8165 -68.8165
    -9.2943  -8.5173   2.7035   2.7035   2.7857   2.8361   2.8862   2.8862
     3.8683   3.8683   4.0841   4.0841   4.3893   7.7019   7.7019   8.3948
     8.4959   8.4959

          k = 0.0000 0.0000 0.0071     band energies (ev):

  -114.1639-114.1637 -68.8297 -68.8264 -68.8171 -68.8171 -68.8165 -68.8165
    -9.2925  -8.5194   2.7037   2.7037   2.7836   2.8300   2.8854   2.8854
     3.8690   3.8690   4.0838   4.0838   4.4028   7.7040   7.7040   8.3601
     8.4940   8.4940

          k = 0.0000 0.0000 0.0107     band energies (ev):

  -114.1639-114.1637 -68.8297 -68.8264 -68.8171 -68.8171 -68.8165 -68.8165
    -9.2894  -8.5228   2.7040   2.7040   2.7802   2.8202   2.8842   2.8842
     3.8703   3.8703   4.0833   4.0833   4.4250   7.7074   7.7074   8.3078
     8.4907   8.4907

          k = 0.0000 0.0000 0.0142     band energies (ev):

  -114.1639-114.1637 -68.8297 -68.8264 -68.8171 -68.8171 -68.8165 -68.8165
    -9.2850  -8.5277   2.7045   2.7045   2.7755   2.8070   2.8825   2.8825
     3.8721   3.8721   4.0827   4.0827   4.4555   7.7122   7.7122   8.2431
     8.4861   8.4861

          k = 0.0000 0.0000 0.0178     band energies (ev):

  -114.1639-114.1637 -68.8296 -68.8264 -68.8171 -68.8171 -68.8165 -68.8165
    -9.2795  -8.5339   2.7052   2.7052   2.7695   2.7911   2.8803   2.8803
     3.8744   3.8744   4.0818   4.0818   4.4936   7.7183   7.7183   8.1702
     8.4803   8.4803

          k = 0.0000 0.0000 0.0214     band energies (ev):

  -114.1639-114.1637 -68.8296 -68.8265 -68.8171 -68.8171 -68.8165 -68.8165
    -9.2728  -8.5414   2.7060   2.7060   2.7623   2.7729   2.8776   2.8776
     3.8772   3.8772   4.0807   4.0807   4.5388   7.7257   7.7257   8.0918
     8.4732   8.4732

     Writing output data file Zn2O2.save
 
     init_run     :      1.22s CPU      1.60s WALL (       1 calls)
     electrons    :    139.68s CPU    199.15s WALL (       1 calls)

     Called by init_run:
     wfcinit      :      0.00s CPU      0.00s WALL (       1 calls)
     potinit      :      0.12s CPU      0.40s WALL (       1 calls)

     Called by electrons:
     c_bands      :    139.67s CPU    199.15s WALL (       1 calls)
     v_of_rho     :      0.01s CPU      0.01s WALL (       1 calls)
     v_h          :      0.00s CPU      0.00s WALL (       1 calls)
     v_xc         :      0.00s CPU      0.00s WALL (       1 calls)

     Called by c_bands:
     init_us_2    :      0.00s CPU      0.02s WALL (      72 calls)
     cegterg      :    108.86s CPU    110.09s WALL (      85 calls)

     Called by sum_band:

     Called by *egterg:
     h_psi        :     87.99s CPU     88.38s WALL (    1433 calls)
     g_psi        :      0.18s CPU      0.53s WALL (    1276 calls)
     cdiaghg      :     14.13s CPU     13.95s WALL (    1348 calls)
     cegterg:over :      5.17s CPU      5.26s WALL (    1276 calls)
     cegterg:upda :      5.10s CPU      5.58s WALL (    1276 calls)
     cegterg:last :      2.76s CPU      2.99s WALL (     373 calls)
     cdiaghg:chol :      1.08s CPU      0.57s WALL (    1348 calls)
     cdiaghg:inve :      0.02s CPU      0.13s WALL (    1348 calls)
     cdiaghg:para :      0.75s CPU      0.92s WALL (    2696 calls)

     Called by h_psi:
     h_psi:vloc   :     87.08s CPU     87.13s WALL (    1433 calls)
     h_psi:vnl    :      0.76s CPU      1.05s WALL (    1433 calls)
     add_vuspsi   :      0.09s CPU      0.42s WALL (    1433 calls)

     General routines
     calbec       :      0.66s CPU      0.62s WALL (    1433 calls)
     fft          :      0.02s CPU      0.03s WALL (       4 calls)
     fftw         :     86.60s CPU     84.52s WALL (   60226 calls)
     davcio       :      0.00s CPU      0.20s WALL (      72 calls)
 
     Parallel routines
     fft_scatter  :     73.27s CPU     34.24s WALL (   60230 calls)
 
     PWSCF        :  2m21.92s CPU     3m26.29s WALL

 
   This run was terminated on:  22:57:48  26Jun2013            

=------------------------------------------------------------------------------=
   JOB DONE.
=------------------------------------------------------------------------------=
Application 2755851 resources: utime ~9924s, stime ~89s, Rss ~35688, inblocks ~305650, outblocks ~2935723
