srun: Job 20457371 step creation temporarily disabled, retrying (Requested nodes are busy)
srun: Step created for StepId=20457371.5

     Program PWSCF v.6.7MaX starts on 16Jan2024 at 19:17:16 

     This program is part of the open-source Quantum ESPRESSO suite
     for quantum simulation of materials; please cite
         "P. Giannozzi et al., J. Phys.:Condens. Matter 21 395502 (2009);
         "P. Giannozzi et al., J. Phys.:Condens. Matter 29 465901 (2017);
          URL http://www.quantum-espresso.org", 
     in publications or presentations arising from this work. More details at
     http://www.quantum-espresso.org/quote

     Parallel version (MPI), running on   512 processors

     MPI processes distributed on     8 nodes
     K-points division:     npool     =      32
     R & G space division:  proc/nbgrp/npool/nimage =      16
     Reading input from wfn.in

     Current dimensions of program PWSCF are:
     Max number of different atomic species (ntypx) = 10
     Max number of k-points (npk) =  40000
     Max angular momentum in pseudopotentials (lmaxx) =  3
     Message from routine cell_base_init:
     DEPRECATED: use true lattice parameter, not A to a.u. conversion factor

     Atomic positions and unit cell read from directory:
     ./Si.save/
     Atomic positions from file used, from input discarded

     Message from routine readpp:
     file ./Si.save/Si.upf not found
     Message from routine read_pp_mesh:
     mesh size missing, using the one in header

     Subspace diagonalization in iterative solution of the eigenvalue problem:
     a serial algorithm will be used

     Message from routine setup:
     using ibrav=0 with symmetry is DISCOURAGED, use correct ibrav instead

     Parallelization info
     --------------------
     sticks:   dense  smooth     PW     G-vecs:    dense   smooth      PW
     Min         128     128     37                 3820     3820     606
     Max         129     129     38                 3824     3824     609
     Sum        2053    2053    595                61143    61143    9721



     bravais-lattice index     =            0
     lattice parameter (alat)  =       1.0000  a.u.
     unit-cell volume          =     272.4307 (a.u.)^3
     number of atoms/cell      =            2
     number of atomic types    =            1
     number of electrons       =         8.00
     number of Kohn-Sham states=          400
     kinetic-energy cutoff     =     140.0000  Ry
     charge density cutoff     =     560.0000  Ry
     Exchange-correlation= PBE
                           (   1   4   3   4   0   0   0)

     celldm(1)=   1.000000  celldm(2)=   0.000000  celldm(3)=   0.000000
     celldm(4)=   0.000000  celldm(5)=   0.000000  celldm(6)=   0.000000

     crystal axes: (cart. coord. in units of alat)
               a(1) = (   0.000000   5.145276   5.145276 )  
               a(2) = (   5.145276   0.000000   5.145276 )  
               a(3) = (   5.145276   5.145276   0.000000 )  

     reciprocal axes: (cart. coord. in units 2 pi/alat)
               b(1) = ( -0.097177  0.097177  0.097177 )  
               b(2) = (  0.097177 -0.097177  0.097177 )  
               b(3) = (  0.097177  0.097177 -0.097177 )  


     PseudoPot. # 1 for Si read from file:
     ../../pseudos/Si.upf
     MD5 check sum: 3f156eda2279325da2083dedf8f436a5
     Pseudo is Norm-conserving + core correction, Zval =  4.0
     Generated using ONCVPSP code by D. R. Hamann
     Using radial grid of 1510 points,  6 beta functions with: 
                l(1) =   0
                l(2) =   0
                l(3) =   1
                l(4) =   1
                l(5) =   2
                l(6) =   2

     atomic species   valence    mass     pseudopotential
        Si             4.00    28.08550     Si( 1.00)

      2 Sym. Ops. (no inversion) found



   Cartesian axes

     site n.     atom                  positions (alat units)
         1           Si  tau(   1) = (   0.0000000   0.0000000   0.0000000  )
         2           Si  tau(   2) = (   2.5717766   7.7153299   7.7153299  )

     number of k points=   216

     Number of k-points >= 100: set verbosity='high' to print them.

     Dense  grid:    61143 G-vectors     FFT dimensions: (  60,  60,  60)

     Estimated max dynamical RAM per process >     147.19 MB

     Estimated total dynamical RAM >      73.60 GB

     The potential is recalculated from file :
     ./Si.save/charge-density

     Starting wfcs are    8 randomized atomic wfcs +  392 random wfcs

     Band Structure Calculation
     Davidson diagonalization with overlap

     ethr =  1.25E-12,  avg # of iterations = 15.9

     total cpu time spent up to now is      442.2 secs

     End of band structure calculation

     Number of k-points >= 100: set verbosity='high' to print the bands.

     Writing output data file ./Si.save/

     init_run     :      0.04s CPU      0.05s WALL (       1 calls)
     electrons    :    440.42s CPU    441.77s WALL (       1 calls)

     Called by init_run:
     wfcinit      :      0.00s CPU      0.00s WALL (       1 calls)
     potinit      :      0.01s CPU      0.01s WALL (       1 calls)
     hinit0       :      0.01s CPU      0.01s WALL (       1 calls)

     Called by electrons:
     c_bands      :    440.42s CPU    441.77s WALL (       1 calls)
     v_of_rho     :      0.01s CPU      0.01s WALL (       1 calls)

     Called by c_bands:
     init_us_2    :      0.00s CPU      0.00s WALL (       7 calls)
     cegterg      :    421.41s CPU    422.62s WALL (       7 calls)

     Called by *egterg:
     cdiaghg      :    339.61s CPU    339.63s WALL (     129 calls)
     h_psi        :     10.40s CPU     10.65s WALL (     136 calls)
     g_psi        :      0.04s CPU      0.04s WALL (     122 calls)

     Called by h_psi:
     h_psi:calbec :      0.51s CPU      0.53s WALL (     136 calls)
     vloc_psi     :      9.34s CPU      9.55s WALL (     136 calls)
     add_vuspsi   :      0.46s CPU      0.46s WALL (     136 calls)

     General routines
     calbec       :      0.51s CPU      0.53s WALL (     136 calls)
     fft          :      0.01s CPU      0.01s WALL (      11 calls)
     fftw         :      8.74s CPU      8.94s WALL (   52732 calls)
     davcio       :      0.01s CPU      0.04s WALL (      14 calls)

     Parallel routines
     fft_scatt_xy :      0.71s CPU      0.71s WALL (   52743 calls)
     fft_scatt_yz :      3.09s CPU      3.17s WALL (   52743 calls)

     PWSCF        :   7m21.52s CPU   7m23.45s WALL


   This run was terminated on:  19:24:39  16Jan2024            

=------------------------------------------------------------------------------=
   JOB DONE.
=------------------------------------------------------------------------------=
