
     Program PWSCF v.5.0.2 (svn rev. 9656) starts on 26Jun2013 at 17:27: 2 

     This program is part of the open-source Quantum ESPRESSO suite
     for quantum simulation of materials; please cite
         "P. Giannozzi et al., J. Phys.:Condens. Matter 21 395502 (2009);
          URL http://www.quantum-espresso.org", 
     in publications or presentations arising from this work. More details at
     http://www.quantum-espresso.org/quote.php

     Parallel version (MPI), running on   144 processors
     K-points division:     npool     =      36
     R & G space division:  proc/nbgrp/npool/nimage =       4

     Current dimensions of program PWSCF are:
     Max number of different atomic species (ntypx) = 10
     Max number of k-points (npk) =  40000
     Max angular momentum in pseudopotentials (lmaxx) =  3
     Waiting for input...
     Reading input from standard input

     Atomic positions and unit cell read from directory:
     ./Zn2O2.save/
 

     Subspace diagonalization in iterative solution of the eigenvalue problem:
     a serial algorithm will be used


   Info: using nr1, nr2, nr3 values from input
 
     Parallelization info
     --------------------
     sticks:   dense  smooth     PW     G-vecs:    dense   smooth      PW
     Min        1038    1038    280                86720    86720   12114
     Max        1039    1039    281                86727    86727   12119
     Sum        4153    4153   1123               346889   346889   48467
 


     bravais-lattice index     =            0
     lattice parameter (alat)  =       1.8897  a.u.
     unit-cell volume          =     320.9943 (a.u.)^3
     number of atoms/cell      =            4
     number of atomic types    =            2
     number of electrons       =        52.00
     number of Kohn-Sham states=           52
     kinetic-energy cutoff     =     400.0000  Ry
     charge density cutoff     =    1600.0000  Ry
     Exchange-correlation      = SLA+PW ( 1 4 0 0 0)
     EXX-fraction              =        0.00

     celldm(1)=   1.889726  celldm(2)=   0.000000  celldm(3)=   0.000000
     celldm(4)=   0.000000  celldm(5)=   0.000000  celldm(6)=   0.000000

     crystal axes: (cart. coord. in units of alat)
               a(1) = (   3.250000   0.000000   0.000000 )  
               a(2) = (  -1.625000   2.814583   0.000000 )  
               a(3) = (   0.000000   0.000000   5.200000 )  

     reciprocal axes: (cart. coord. in units 2 pi/alat)
               b(1) = (  0.307692  0.177646  0.000000 )  
               b(2) = (  0.000000  0.355292  0.000000 )  
               b(3) = (  0.000000  0.000000  0.192308 )  


     PseudoPot. # 1 for Zn read from file:
     ../../0_pp/Zn.pw-spn-nc.UPF
     MD5 check sum: 9a837cc8ef69fdaee1504d3748345681
     Pseudo is Norm-conserving + core correction, Zval = 20.0
     Generated using "atomic" code by A. Dal Corso  v.5.0.2 svn rev. 9656
     Using radial grid of 1201 points,  2 beta functions with: 
                l(1) =   0
                l(2) =   1

     PseudoPot. # 2 for  O read from file:
     ../../0_pp/O.pw-n-nc.UPF
     MD5 check sum: 22ead4914353326b5879bd0c3df232e0
     Pseudo is Norm-conserving + core correction, Zval =  6.0
     Generated using "atomic" code by A. Dal Corso  v.5.0.2 svn rev. 9656
     Using radial grid of 1095 points,  1 beta functions with: 
                l(1) =   0

     atomic species   valence    mass     pseudopotential
        Zn            20.00    65.38000     Zn( 1.00)
        O              6.00    15.99900      O( 1.00)


     Full LDA+U calculation (l_max = 2) with parameters (eV):
     U(  1) =   8.0000   J(  1) =   0.9000   B(  1) =   0.1033



     12 Sym. Ops. (no inversion) found ( 6 have fractional translation)


                                    s                        frac. trans.

      isym =  1     identity                                     

 cryst.   s( 1) = (     1          0          0      )
                  (     0          1          0      )
                  (     0          0          1      )

 cart.    s( 1) = (  1.0000000  0.0000000  0.0000000 )
                  (  0.0000000  1.0000000  0.0000000 )
                  (  0.0000000  0.0000000  1.0000000 )


      isym =  2     180 deg rotation - cart. axis [0,0,1]        

 cryst.   s( 2) = (    -1          0          0      )    f =(  0.0000000 )
                  (     0         -1          0      )       (  0.0000000 )
                  (     0          0          1      )       ( -0.5000000 )

 cart.    s( 2) = ( -1.0000000  0.0000000  0.0000000 )    f =(  0.0000000 )
                  (  0.0000000 -1.0000000  0.0000000 )       (  0.0000000 )
                  (  0.0000000  0.0000000  1.0000000 )       ( -2.6000000 )


      isym =  3      60 deg rotation - cryst. axis [0,0,1]       

 cryst.   s( 3) = (     1          1          0      )    f =(  0.0000000 )
                  (    -1          0          0      )       (  0.0000000 )
                  (     0          0          1      )       ( -0.5000000 )

 cart.    s( 3) = (  0.5000000 -0.8660254  0.0000000 )    f =(  0.0000000 )
                  (  0.8660254  0.5000000  0.0000000 )       (  0.0000000 )
                  (  0.0000000  0.0000000  1.0000000 )       ( -2.6000000 )


      isym =  4      60 deg rotation - cryst. axis [0,0,-1]      

 cryst.   s( 4) = (     0         -1          0      )    f =(  0.0000000 )
                  (     1          1          0      )       (  0.0000000 )
                  (     0          0          1      )       ( -0.5000000 )

 cart.    s( 4) = (  0.5000000  0.8660254  0.0000000 )    f =(  0.0000000 )
                  ( -0.8660254  0.5000000  0.0000000 )       (  0.0000000 )
                  (  0.0000000  0.0000000  1.0000000 )       ( -2.6000000 )


      isym =  5     120 deg rotation - cryst. axis [0,0,1]       

 cryst.   s( 5) = (     0          1          0      )
                  (    -1         -1          0      )
                  (     0          0          1      )

 cart.    s( 5) = ( -0.5000000 -0.8660254  0.0000000 )
                  (  0.8660254 -0.5000000  0.0000000 )
                  (  0.0000000  0.0000000  1.0000000 )


      isym =  6     120 deg rotation - cryst. axis [0,0,-1]      

 cryst.   s( 6) = (    -1         -1          0      )
                  (     1          0          0      )
                  (     0          0          1      )

 cart.    s( 6) = ( -0.5000000  0.8660254  0.0000000 )
                  ( -0.8660254 -0.5000000  0.0000000 )
                  (  0.0000000  0.0000000  1.0000000 )


      isym =  7     inv. 180 deg rotation - cart. axis [0,1,0]   

 cryst.   s( 7) = (     1          0          0      )    f =(  0.0000000 )
                  (    -1         -1          0      )       (  0.0000000 )
                  (     0          0          1      )       ( -0.5000000 )

 cart.    s( 7) = (  1.0000000  0.0000000  0.0000000 )    f =(  0.0000000 )
                  (  0.0000000 -1.0000000  0.0000000 )       (  0.0000000 )
                  (  0.0000000  0.0000000  1.0000000 )       ( -2.6000000 )


      isym =  8     inv. 180 deg rotation - cart. axis [1,0,0]   

 cryst.   s( 8) = (    -1          0          0      )
                  (     1          1          0      )
                  (     0          0          1      )

 cart.    s( 8) = ( -1.0000000  0.0000000  0.0000000 )
                  (  0.0000000  1.0000000  0.0000000 )
                  (  0.0000000  0.0000000  1.0000000 )


      isym =  9     inv. 180 deg rotation - cryst. axis [1,-1,0] 

 cryst.   s( 9) = (     0          1          0      )    f =(  0.0000000 )
                  (     1          0          0      )       (  0.0000000 )
                  (     0          0          1      )       ( -0.5000000 )

 cart.    s( 9) = ( -0.5000000  0.8660254  0.0000000 )    f =(  0.0000000 )
                  (  0.8660254  0.5000000  0.0000000 )       (  0.0000000 )
                  (  0.0000000  0.0000000  1.0000000 )       ( -2.6000000 )


      isym = 10     inv. 180 deg rotation - cryst. axis [2,1,0]  

 cryst.   s(10) = (    -1         -1          0      )    f =(  0.0000000 )
                  (     0          1          0      )       (  0.0000000 )
                  (     0          0          1      )       ( -0.5000000 )

 cart.    s(10) = ( -0.5000000 -0.8660254  0.0000000 )    f =(  0.0000000 )
                  ( -0.8660254  0.5000000  0.0000000 )       (  0.0000000 )
                  (  0.0000000  0.0000000  1.0000000 )       ( -2.6000000 )


      isym = 11     inv. 180 deg rotation - cryst. axis [0,1,0]  

 cryst.   s(11) = (     1          1          0      )
                  (     0         -1          0      )
                  (     0          0          1      )

 cart.    s(11) = (  0.5000000  0.8660254  0.0000000 )
                  (  0.8660254 -0.5000000  0.0000000 )
                  (  0.0000000  0.0000000  1.0000000 )


      isym = 12     inv. 180 deg rotation - cryst. axis [1,1,0]  

 cryst.   s(12) = (     0         -1          0      )
                  (    -1          0          0      )
                  (     0          0          1      )

 cart.    s(12) = (  0.5000000 -0.8660254  0.0000000 )
                  ( -0.8660254 -0.5000000  0.0000000 )
                  (  0.0000000  0.0000000  1.0000000 )


     point group C_6v (6mm) 
     there are  6 classes
     the character table:

       E     2C6   2C3   C2    3s_v  3s_d 
A_1    1.00  1.00  1.00  1.00  1.00  1.00
A_2    1.00  1.00  1.00  1.00 -1.00 -1.00
B_1    1.00 -1.00  1.00 -1.00  1.00 -1.00
B_2    1.00 -1.00  1.00 -1.00 -1.00  1.00
E_1    2.00  1.00 -1.00 -2.00  0.00  0.00
E_2    2.00 -1.00 -1.00  2.00  0.00  0.00

     the symmetry operations in each class:
     E        1
     C2       2
     2C6      3    4
     2C3      5    6
     3s_v     7    9   10
     3s_d     8   12   11

   Cartesian axes

     site n.     atom                  positions (alat units)
         1           Zn  tau(   1) = (   1.6250000   0.9381942   0.0000000  )
         2           Zn  tau(   2) = (   0.0000000   1.8763884   2.6000000  )
         3           O   tau(   3) = (   1.6250000   0.9381942   3.2136000  )
         4           O   tau(   4) = (   0.0000000   1.8763884   0.6136000  )

   Crystallographic axes

     site n.     atom                  positions (cryst. coord.)
         1           Zn  tau(   1) = (  0.6666667  0.3333333  0.0000000  )
         2           Zn  tau(   2) = (  0.3333333  0.6666667  0.5000000  )
         3           O   tau(   3) = (  0.6666667  0.3333333  0.6180000  )
         4           O   tau(   4) = (  0.3333333  0.6666667  0.1180000  )

     number of k points=   435
                       cart. coord. in units 2pi/alat
        k(    1) = (   0.0000000   0.0000000   0.0000000), wk =   0.0045977
        k(    2) = (   0.0030769   0.0017765   0.0000000), wk =   0.0045977
        k(    3) = (   0.0061538   0.0035529   0.0000000), wk =   0.0045977
        k(    4) = (   0.0092308   0.0053294   0.0000000), wk =   0.0045977
        k(    5) = (   0.0123077   0.0071058   0.0000000), wk =   0.0045977
        k(    6) = (   0.0153846   0.0088823   0.0000000), wk =   0.0045977
        k(    7) = (   0.0184615   0.0106588   0.0000000), wk =   0.0045977
        k(    8) = (   0.0215385   0.0124352   0.0000000), wk =   0.0045977
        k(    9) = (   0.0246154   0.0142117   0.0000000), wk =   0.0045977
        k(   10) = (   0.0276923   0.0159882   0.0000000), wk =   0.0045977
        k(   11) = (   0.0307692   0.0177646   0.0000000), wk =   0.0045977
        k(   12) = (   0.0338462   0.0195411   0.0000000), wk =   0.0045977
        k(   13) = (   0.0369231   0.0213175   0.0000000), wk =   0.0045977
        k(   14) = (   0.0400000   0.0230940   0.0000000), wk =   0.0045977
        k(   15) = (   0.0430769   0.0248705   0.0000000), wk =   0.0045977
        k(   16) = (   0.0461538   0.0266469   0.0000000), wk =   0.0045977
        k(   17) = (   0.0492308   0.0284234   0.0000000), wk =   0.0045977
        k(   18) = (   0.0523077   0.0301999   0.0000000), wk =   0.0045977
        k(   19) = (   0.0553846   0.0319763   0.0000000), wk =   0.0045977
        k(   20) = (   0.0584615   0.0337528   0.0000000), wk =   0.0045977
        k(   21) = (   0.0615385   0.0355292   0.0000000), wk =   0.0045977
        k(   22) = (   0.0646154   0.0373057   0.0000000), wk =   0.0045977
        k(   23) = (   0.0676923   0.0390822   0.0000000), wk =   0.0045977
        k(   24) = (   0.0707692   0.0408586   0.0000000), wk =   0.0045977
        k(   25) = (   0.0738462   0.0426351   0.0000000), wk =   0.0045977
        k(   26) = (   0.0769231   0.0444116   0.0000000), wk =   0.0045977
        k(   27) = (   0.0800000   0.0461880   0.0000000), wk =   0.0045977
        k(   28) = (   0.0830769   0.0479645   0.0000000), wk =   0.0045977
        k(   29) = (   0.0861538   0.0497409   0.0000000), wk =   0.0045977
        k(   30) = (   0.0892308   0.0515174   0.0000000), wk =   0.0045977
        k(   31) = (   0.0923077   0.0532939   0.0000000), wk =   0.0045977
        k(   32) = (   0.0953846   0.0550703   0.0000000), wk =   0.0045977
        k(   33) = (   0.0984615   0.0568468   0.0000000), wk =   0.0045977
        k(   34) = (   0.1015385   0.0586233   0.0000000), wk =   0.0045977
        k(   35) = (   0.1046154   0.0603997   0.0000000), wk =   0.0045977
        k(   36) = (   0.1076923   0.0621762   0.0000000), wk =   0.0045977
        k(   37) = (   0.1107692   0.0639526   0.0000000), wk =   0.0045977
        k(   38) = (   0.1138462   0.0657291   0.0000000), wk =   0.0045977
        k(   39) = (   0.1169231   0.0675056   0.0000000), wk =   0.0045977
        k(   40) = (   0.1200000   0.0692820   0.0000000), wk =   0.0045977
        k(   41) = (   0.1230769   0.0710585   0.0000000), wk =   0.0045977
        k(   42) = (   0.1261538   0.0728350   0.0000000), wk =   0.0045977
        k(   43) = (   0.1292308   0.0746114   0.0000000), wk =   0.0045977
        k(   44) = (   0.1323077   0.0763879   0.0000000), wk =   0.0045977
        k(   45) = (   0.1353846   0.0781643   0.0000000), wk =   0.0045977
        k(   46) = (   0.1384615   0.0799408   0.0000000), wk =   0.0045977
        k(   47) = (   0.1415385   0.0817173   0.0000000), wk =   0.0045977
        k(   48) = (   0.1446154   0.0834937   0.0000000), wk =   0.0045977
        k(   49) = (   0.1476923   0.0852702   0.0000000), wk =   0.0045977
        k(   50) = (   0.1507692   0.0870467   0.0000000), wk =   0.0045977
        k(   51) = (   0.1538462   0.0888231   0.0000000), wk =   0.0045977
        k(   52) = (   0.1520778   0.0918860   0.0000000), wk =   0.0045977
        k(   53) = (   0.1503095   0.0949488   0.0000000), wk =   0.0045977
        k(   54) = (   0.1485411   0.0980117   0.0000000), wk =   0.0045977
        k(   55) = (   0.1467728   0.1010746   0.0000000), wk =   0.0045977
        k(   56) = (   0.1450044   0.1041374   0.0000000), wk =   0.0045977
        k(   57) = (   0.1432361   0.1072003   0.0000000), wk =   0.0045977
        k(   58) = (   0.1414677   0.1102631   0.0000000), wk =   0.0045977
        k(   59) = (   0.1396994   0.1133260   0.0000000), wk =   0.0045977
        k(   60) = (   0.1379310   0.1163889   0.0000000), wk =   0.0045977
        k(   61) = (   0.1361627   0.1194517   0.0000000), wk =   0.0045977
        k(   62) = (   0.1343943   0.1225146   0.0000000), wk =   0.0045977
        k(   63) = (   0.1326260   0.1255774   0.0000000), wk =   0.0045977
        k(   64) = (   0.1308576   0.1286403   0.0000000), wk =   0.0045977
        k(   65) = (   0.1290893   0.1317032   0.0000000), wk =   0.0045977
        k(   66) = (   0.1273209   0.1347660   0.0000000), wk =   0.0045977
        k(   67) = (   0.1255526   0.1378289   0.0000000), wk =   0.0045977
        k(   68) = (   0.1237842   0.1408917   0.0000000), wk =   0.0045977
        k(   69) = (   0.1220159   0.1439546   0.0000000), wk =   0.0045977
        k(   70) = (   0.1202475   0.1470175   0.0000000), wk =   0.0045977
        k(   71) = (   0.1184792   0.1500803   0.0000000), wk =   0.0045977
        k(   72) = (   0.1167108   0.1531432   0.0000000), wk =   0.0045977
        k(   73) = (   0.1149425   0.1562060   0.0000000), wk =   0.0045977
        k(   74) = (   0.1131741   0.1592689   0.0000000), wk =   0.0045977
        k(   75) = (   0.1114058   0.1623318   0.0000000), wk =   0.0045977
        k(   76) = (   0.1096374   0.1653946   0.0000000), wk =   0.0045977
        k(   77) = (   0.1078691   0.1684575   0.0000000), wk =   0.0045977
        k(   78) = (   0.1061007   0.1715203   0.0000000), wk =   0.0045977
        k(   79) = (   0.1043324   0.1745832   0.0000000), wk =   0.0045977
        k(   80) = (   0.1025640   0.1776461   0.0000000), wk =   0.0045977
        k(   81) = (   0.1007957   0.1745832   0.0000000), wk =   0.0045977
        k(   82) = (   0.0990273   0.1715203   0.0000000), wk =   0.0045977
        k(   83) = (   0.0972590   0.1684575   0.0000000), wk =   0.0045977
        k(   84) = (   0.0954906   0.1653946   0.0000000), wk =   0.0045977
        k(   85) = (   0.0937223   0.1623317   0.0000000), wk =   0.0045977
        k(   86) = (   0.0919539   0.1592689   0.0000000), wk =   0.0045977
        k(   87) = (   0.0901856   0.1562060   0.0000000), wk =   0.0045977
        k(   88) = (   0.0884172   0.1531432   0.0000000), wk =   0.0045977
        k(   89) = (   0.0866489   0.1500803   0.0000000), wk =   0.0045977
        k(   90) = (   0.0848806   0.1470174   0.0000000), wk =   0.0045977
        k(   91) = (   0.0831122   0.1439546   0.0000000), wk =   0.0045977
        k(   92) = (   0.0813439   0.1408917   0.0000000), wk =   0.0045977
        k(   93) = (   0.0795755   0.1378288   0.0000000), wk =   0.0045977
        k(   94) = (   0.0778072   0.1347660   0.0000000), wk =   0.0045977
        k(   95) = (   0.0760388   0.1317031   0.0000000), wk =   0.0045977
        k(   96) = (   0.0742705   0.1286402   0.0000000), wk =   0.0045977
        k(   97) = (   0.0725021   0.1255774   0.0000000), wk =   0.0045977
        k(   98) = (   0.0707338   0.1225145   0.0000000), wk =   0.0045977
        k(   99) = (   0.0689654   0.1194517   0.0000000), wk =   0.0045977
        k(  100) = (   0.0671971   0.1163888   0.0000000), wk =   0.0045977
        k(  101) = (   0.0654288   0.1133259   0.0000000), wk =   0.0045977
        k(  102) = (   0.0636604   0.1102631   0.0000000), wk =   0.0045977
        k(  103) = (   0.0618921   0.1072002   0.0000000), wk =   0.0045977
        k(  104) = (   0.0601237   0.1041373   0.0000000), wk =   0.0045977
        k(  105) = (   0.0583554   0.1010745   0.0000000), wk =   0.0045977
        k(  106) = (   0.0565870   0.0980116   0.0000000), wk =   0.0045977
        k(  107) = (   0.0548187   0.0949488   0.0000000), wk =   0.0045977
        k(  108) = (   0.0530503   0.0918859   0.0000000), wk =   0.0045977
        k(  109) = (   0.0512820   0.0888230   0.0000000), wk =   0.0045977
        k(  110) = (   0.0495137   0.0857602   0.0000000), wk =   0.0045977
        k(  111) = (   0.0477453   0.0826973   0.0000000), wk =   0.0045977
        k(  112) = (   0.0459770   0.0796344   0.0000000), wk =   0.0045977
        k(  113) = (   0.0442086   0.0765716   0.0000000), wk =   0.0045977
        k(  114) = (   0.0424403   0.0735087   0.0000000), wk =   0.0045977
        k(  115) = (   0.0406719   0.0704459   0.0000000), wk =   0.0045977
        k(  116) = (   0.0389036   0.0673830   0.0000000), wk =   0.0045977
        k(  117) = (   0.0371352   0.0643201   0.0000000), wk =   0.0045977
        k(  118) = (   0.0353669   0.0612573   0.0000000), wk =   0.0045977
        k(  119) = (   0.0335986   0.0581944   0.0000000), wk =   0.0045977
        k(  120) = (   0.0318302   0.0551315   0.0000000), wk =   0.0045977
        k(  121) = (   0.0300619   0.0520687   0.0000000), wk =   0.0045977
        k(  122) = (   0.0282935   0.0490058   0.0000000), wk =   0.0045977
        k(  123) = (   0.0265252   0.0459429   0.0000000), wk =   0.0045977
        k(  124) = (   0.0247568   0.0428801   0.0000000), wk =   0.0045977
        k(  125) = (   0.0229885   0.0398172   0.0000000), wk =   0.0045977
        k(  126) = (   0.0212201   0.0367544   0.0000000), wk =   0.0045977
        k(  127) = (   0.0194518   0.0336915   0.0000000), wk =   0.0045977
        k(  128) = (   0.0176834   0.0306286   0.0000000), wk =   0.0045977
        k(  129) = (   0.0159151   0.0275658   0.0000000), wk =   0.0045977
        k(  130) = (   0.0141468   0.0245029   0.0000000), wk =   0.0045977
        k(  131) = (   0.0123784   0.0214400   0.0000000), wk =   0.0045977
        k(  132) = (   0.0106101   0.0183772   0.0000000), wk =   0.0045977
        k(  133) = (   0.0088417   0.0153143   0.0000000), wk =   0.0045977
        k(  134) = (   0.0070734   0.0122515   0.0000000), wk =   0.0045977
        k(  135) = (   0.0053050   0.0091886   0.0000000), wk =   0.0045977
        k(  136) = (   0.0035367   0.0061257   0.0000000), wk =   0.0045977
        k(  137) = (   0.0017683   0.0030629   0.0000000), wk =   0.0045977
        k(  138) = (   0.0000000   0.0000000   0.0000000), wk =   0.0045977
        k(  139) = (   0.0000000   0.0000000   0.0035613), wk =   0.0045977
        k(  140) = (   0.0000000   0.0000000   0.0071225), wk =   0.0045977
        k(  141) = (   0.0000000   0.0000000   0.0106838), wk =   0.0045977
        k(  142) = (   0.0000000   0.0000000   0.0142450), wk =   0.0045977
        k(  143) = (   0.0000000   0.0000000   0.0178063), wk =   0.0045977
        k(  144) = (   0.0000000   0.0000000   0.0213675), wk =   0.0045977
        k(  145) = (   0.0000000   0.0000000   0.0249288), wk =   0.0045977
        k(  146) = (   0.0000000   0.0000000   0.0284900), wk =   0.0045977
        k(  147) = (   0.0000000   0.0000000   0.0320513), wk =   0.0045977
        k(  148) = (   0.0000000   0.0000000   0.0356125), wk =   0.0045977
        k(  149) = (   0.0000000   0.0000000   0.0391738), wk =   0.0045977
        k(  150) = (   0.0000000   0.0000000   0.0427350), wk =   0.0045977
        k(  151) = (   0.0000000   0.0000000   0.0462963), wk =   0.0045977
        k(  152) = (   0.0000000   0.0000000   0.0498575), wk =   0.0045977
        k(  153) = (   0.0000000   0.0000000   0.0534188), wk =   0.0045977
        k(  154) = (   0.0000000   0.0000000   0.0569801), wk =   0.0045977
        k(  155) = (   0.0000000   0.0000000   0.0605413), wk =   0.0045977
        k(  156) = (   0.0000000   0.0000000   0.0641026), wk =   0.0045977
        k(  157) = (   0.0000000   0.0000000   0.0676638), wk =   0.0045977
        k(  158) = (   0.0000000   0.0000000   0.0712251), wk =   0.0045977
        k(  159) = (   0.0000000   0.0000000   0.0747863), wk =   0.0045977
        k(  160) = (   0.0000000   0.0000000   0.0783476), wk =   0.0045977
        k(  161) = (   0.0000000   0.0000000   0.0819088), wk =   0.0045977
        k(  162) = (   0.0000000   0.0000000   0.0854701), wk =   0.0045977
        k(  163) = (   0.0000000   0.0000000   0.0890313), wk =   0.0045977
        k(  164) = (   0.0000000   0.0000000   0.0925926), wk =   0.0045977
        k(  165) = (   0.0000000   0.0000000   0.0961538), wk =   0.0045977
        k(  166) = (   0.0030769   0.0017765   0.0961538), wk =   0.0045977
        k(  167) = (   0.0061538   0.0035529   0.0961538), wk =   0.0045977
        k(  168) = (   0.0092308   0.0053294   0.0961538), wk =   0.0045977
        k(  169) = (   0.0123077   0.0071058   0.0961538), wk =   0.0045977
        k(  170) = (   0.0153846   0.0088823   0.0961538), wk =   0.0045977
        k(  171) = (   0.0184615   0.0106588   0.0961538), wk =   0.0045977
        k(  172) = (   0.0215385   0.0124352   0.0961538), wk =   0.0045977
        k(  173) = (   0.0246154   0.0142117   0.0961538), wk =   0.0045977
        k(  174) = (   0.0276923   0.0159882   0.0961538), wk =   0.0045977
        k(  175) = (   0.0307692   0.0177646   0.0961538), wk =   0.0045977
        k(  176) = (   0.0338462   0.0195411   0.0961538), wk =   0.0045977
        k(  177) = (   0.0369231   0.0213175   0.0961538), wk =   0.0045977
        k(  178) = (   0.0400000   0.0230940   0.0961538), wk =   0.0045977
        k(  179) = (   0.0430769   0.0248705   0.0961538), wk =   0.0045977
        k(  180) = (   0.0461538   0.0266469   0.0961538), wk =   0.0045977
        k(  181) = (   0.0492308   0.0284234   0.0961538), wk =   0.0045977
        k(  182) = (   0.0523077   0.0301999   0.0961538), wk =   0.0045977
        k(  183) = (   0.0553846   0.0319763   0.0961538), wk =   0.0045977
        k(  184) = (   0.0584615   0.0337528   0.0961538), wk =   0.0045977
        k(  185) = (   0.0615385   0.0355292   0.0961538), wk =   0.0045977
        k(  186) = (   0.0646154   0.0373057   0.0961538), wk =   0.0045977
        k(  187) = (   0.0676923   0.0390822   0.0961538), wk =   0.0045977
        k(  188) = (   0.0707692   0.0408586   0.0961538), wk =   0.0045977
        k(  189) = (   0.0738462   0.0426351   0.0961538), wk =   0.0045977
        k(  190) = (   0.0769231   0.0444116   0.0961538), wk =   0.0045977
        k(  191) = (   0.0800000   0.0461880   0.0961538), wk =   0.0045977
        k(  192) = (   0.0830769   0.0479645   0.0961538), wk =   0.0045977
        k(  193) = (   0.0861538   0.0497409   0.0961538), wk =   0.0045977
        k(  194) = (   0.0892308   0.0515174   0.0961538), wk =   0.0045977
        k(  195) = (   0.0923077   0.0532939   0.0961538), wk =   0.0045977
        k(  196) = (   0.0953846   0.0550703   0.0961538), wk =   0.0045977
        k(  197) = (   0.0984615   0.0568468   0.0961538), wk =   0.0045977
        k(  198) = (   0.1015385   0.0586233   0.0961538), wk =   0.0045977
        k(  199) = (   0.1046154   0.0603997   0.0961538), wk =   0.0045977
        k(  200) = (   0.1076923   0.0621762   0.0961538), wk =   0.0045977
        k(  201) = (   0.1107692   0.0639526   0.0961538), wk =   0.0045977
        k(  202) = (   0.1138462   0.0657291   0.0961538), wk =   0.0045977
        k(  203) = (   0.1169231   0.0675056   0.0961538), wk =   0.0045977
        k(  204) = (   0.1200000   0.0692820   0.0961538), wk =   0.0045977
        k(  205) = (   0.1230769   0.0710585   0.0961538), wk =   0.0045977
        k(  206) = (   0.1261538   0.0728350   0.0961538), wk =   0.0045977
        k(  207) = (   0.1292308   0.0746114   0.0961538), wk =   0.0045977
        k(  208) = (   0.1323077   0.0763879   0.0961538), wk =   0.0045977
        k(  209) = (   0.1353846   0.0781643   0.0961538), wk =   0.0045977
        k(  210) = (   0.1384615   0.0799408   0.0961538), wk =   0.0045977
        k(  211) = (   0.1415385   0.0817173   0.0961538), wk =   0.0045977
        k(  212) = (   0.1446154   0.0834937   0.0961538), wk =   0.0045977
        k(  213) = (   0.1476923   0.0852702   0.0961538), wk =   0.0045977
        k(  214) = (   0.1507692   0.0870467   0.0961538), wk =   0.0045977
        k(  215) = (   0.1538462   0.0888231   0.0961538), wk =   0.0045977
        k(  216) = (   0.1520778   0.0918860   0.0961538), wk =   0.0045977
        k(  217) = (   0.1503095   0.0949488   0.0961538), wk =   0.0045977
        k(  218) = (   0.1485411   0.0980117   0.0961538), wk =   0.0045977
        k(  219) = (   0.1467728   0.1010746   0.0961538), wk =   0.0045977
        k(  220) = (   0.1450044   0.1041374   0.0961538), wk =   0.0045977
        k(  221) = (   0.1432361   0.1072003   0.0961538), wk =   0.0045977
        k(  222) = (   0.1414677   0.1102631   0.0961538), wk =   0.0045977
        k(  223) = (   0.1396994   0.1133260   0.0961538), wk =   0.0045977
        k(  224) = (   0.1379310   0.1163889   0.0961538), wk =   0.0045977
        k(  225) = (   0.1361627   0.1194517   0.0961538), wk =   0.0045977
        k(  226) = (   0.1343943   0.1225146   0.0961538), wk =   0.0045977
        k(  227) = (   0.1326260   0.1255774   0.0961538), wk =   0.0045977
        k(  228) = (   0.1308576   0.1286403   0.0961538), wk =   0.0045977
        k(  229) = (   0.1290893   0.1317032   0.0961538), wk =   0.0045977
        k(  230) = (   0.1273209   0.1347660   0.0961538), wk =   0.0045977
        k(  231) = (   0.1255526   0.1378289   0.0961538), wk =   0.0045977
        k(  232) = (   0.1237842   0.1408917   0.0961538), wk =   0.0045977
        k(  233) = (   0.1220159   0.1439546   0.0961538), wk =   0.0045977
        k(  234) = (   0.1202475   0.1470175   0.0961538), wk =   0.0045977
        k(  235) = (   0.1184792   0.1500803   0.0961538), wk =   0.0045977
        k(  236) = (   0.1167108   0.1531432   0.0961538), wk =   0.0045977
        k(  237) = (   0.1149425   0.1562060   0.0961538), wk =   0.0045977
        k(  238) = (   0.1131741   0.1592689   0.0961538), wk =   0.0045977
        k(  239) = (   0.1114058   0.1623318   0.0961538), wk =   0.0045977
        k(  240) = (   0.1096374   0.1653946   0.0961538), wk =   0.0045977
        k(  241) = (   0.1078691   0.1684575   0.0961538), wk =   0.0045977
        k(  242) = (   0.1061007   0.1715203   0.0961538), wk =   0.0045977
        k(  243) = (   0.1043324   0.1745832   0.0961538), wk =   0.0045977
        k(  244) = (   0.1025640   0.1776461   0.0961538), wk =   0.0045977
        k(  245) = (   0.1007957   0.1745832   0.0961538), wk =   0.0045977
        k(  246) = (   0.0990273   0.1715203   0.0961538), wk =   0.0045977
        k(  247) = (   0.0972590   0.1684575   0.0961538), wk =   0.0045977
        k(  248) = (   0.0954906   0.1653946   0.0961538), wk =   0.0045977
        k(  249) = (   0.0937223   0.1623317   0.0961538), wk =   0.0045977
        k(  250) = (   0.0919539   0.1592689   0.0961538), wk =   0.0045977
        k(  251) = (   0.0901856   0.1562060   0.0961538), wk =   0.0045977
        k(  252) = (   0.0884172   0.1531432   0.0961538), wk =   0.0045977
        k(  253) = (   0.0866489   0.1500803   0.0961538), wk =   0.0045977
        k(  254) = (   0.0848806   0.1470174   0.0961538), wk =   0.0045977
        k(  255) = (   0.0831122   0.1439546   0.0961538), wk =   0.0045977
        k(  256) = (   0.0813439   0.1408917   0.0961538), wk =   0.0045977
        k(  257) = (   0.0795755   0.1378288   0.0961538), wk =   0.0045977
        k(  258) = (   0.0778072   0.1347660   0.0961538), wk =   0.0045977
        k(  259) = (   0.0760388   0.1317031   0.0961538), wk =   0.0045977
        k(  260) = (   0.0742705   0.1286402   0.0961538), wk =   0.0045977
        k(  261) = (   0.0725021   0.1255774   0.0961538), wk =   0.0045977
        k(  262) = (   0.0707338   0.1225145   0.0961538), wk =   0.0045977
        k(  263) = (   0.0689654   0.1194517   0.0961538), wk =   0.0045977
        k(  264) = (   0.0671971   0.1163888   0.0961538), wk =   0.0045977
        k(  265) = (   0.0654288   0.1133259   0.0961538), wk =   0.0045977
        k(  266) = (   0.0636604   0.1102631   0.0961538), wk =   0.0045977
        k(  267) = (   0.0618921   0.1072002   0.0961538), wk =   0.0045977
        k(  268) = (   0.0601237   0.1041373   0.0961538), wk =   0.0045977
        k(  269) = (   0.0583554   0.1010745   0.0961538), wk =   0.0045977
        k(  270) = (   0.0565870   0.0980116   0.0961538), wk =   0.0045977
        k(  271) = (   0.0548187   0.0949488   0.0961538), wk =   0.0045977
        k(  272) = (   0.0530503   0.0918859   0.0961538), wk =   0.0045977
        k(  273) = (   0.0512820   0.0888230   0.0961538), wk =   0.0045977
        k(  274) = (   0.0495137   0.0857602   0.0961538), wk =   0.0045977
        k(  275) = (   0.0477453   0.0826973   0.0961538), wk =   0.0045977
        k(  276) = (   0.0459770   0.0796344   0.0961538), wk =   0.0045977
        k(  277) = (   0.0442086   0.0765716   0.0961538), wk =   0.0045977
        k(  278) = (   0.0424403   0.0735087   0.0961538), wk =   0.0045977
        k(  279) = (   0.0406719   0.0704459   0.0961538), wk =   0.0045977
        k(  280) = (   0.0389036   0.0673830   0.0961538), wk =   0.0045977
        k(  281) = (   0.0371352   0.0643201   0.0961538), wk =   0.0045977
        k(  282) = (   0.0353669   0.0612573   0.0961538), wk =   0.0045977
        k(  283) = (   0.0335986   0.0581944   0.0961538), wk =   0.0045977
        k(  284) = (   0.0318302   0.0551315   0.0961538), wk =   0.0045977
        k(  285) = (   0.0300619   0.0520687   0.0961538), wk =   0.0045977
        k(  286) = (   0.0282935   0.0490058   0.0961538), wk =   0.0045977
        k(  287) = (   0.0265252   0.0459429   0.0961538), wk =   0.0045977
        k(  288) = (   0.0247568   0.0428801   0.0961538), wk =   0.0045977
        k(  289) = (   0.0229885   0.0398172   0.0961538), wk =   0.0045977
        k(  290) = (   0.0212201   0.0367544   0.0961538), wk =   0.0045977
        k(  291) = (   0.0194518   0.0336915   0.0961538), wk =   0.0045977
        k(  292) = (   0.0176834   0.0306286   0.0961538), wk =   0.0045977
        k(  293) = (   0.0159151   0.0275658   0.0961538), wk =   0.0045977
        k(  294) = (   0.0141468   0.0245029   0.0961538), wk =   0.0045977
        k(  295) = (   0.0123784   0.0214400   0.0961538), wk =   0.0045977
        k(  296) = (   0.0106101   0.0183772   0.0961538), wk =   0.0045977
        k(  297) = (   0.0088417   0.0153143   0.0961538), wk =   0.0045977
        k(  298) = (   0.0070734   0.0122515   0.0961538), wk =   0.0045977
        k(  299) = (   0.0053050   0.0091886   0.0961538), wk =   0.0045977
        k(  300) = (   0.0035367   0.0061257   0.0961538), wk =   0.0045977
        k(  301) = (   0.0017683   0.0030629   0.0961538), wk =   0.0045977
        k(  302) = (   0.0000000   0.0000000   0.0961538), wk =   0.0045977
        k(  303) = (   0.0030769   0.0017765   0.0961538), wk =   0.0045977
        k(  304) = (   0.0061538   0.0035529   0.0961538), wk =   0.0045977
        k(  305) = (   0.0092308   0.0053294   0.0961538), wk =   0.0045977
        k(  306) = (   0.0123077   0.0071058   0.0961538), wk =   0.0045977
        k(  307) = (   0.0153846   0.0088823   0.0961538), wk =   0.0045977
        k(  308) = (   0.0184615   0.0106588   0.0961538), wk =   0.0045977
        k(  309) = (   0.0215385   0.0124352   0.0961538), wk =   0.0045977
        k(  310) = (   0.0246154   0.0142117   0.0961538), wk =   0.0045977
        k(  311) = (   0.0276923   0.0159882   0.0961538), wk =   0.0045977
        k(  312) = (   0.0307692   0.0177646   0.0961538), wk =   0.0045977
        k(  313) = (   0.0338462   0.0195411   0.0961538), wk =   0.0045977
        k(  314) = (   0.0369231   0.0213175   0.0961538), wk =   0.0045977
        k(  315) = (   0.0400000   0.0230940   0.0961538), wk =   0.0045977
        k(  316) = (   0.0430769   0.0248705   0.0961538), wk =   0.0045977
        k(  317) = (   0.0461538   0.0266469   0.0961538), wk =   0.0045977
        k(  318) = (   0.0492308   0.0284234   0.0961538), wk =   0.0045977
        k(  319) = (   0.0523077   0.0301999   0.0961538), wk =   0.0045977
        k(  320) = (   0.0553846   0.0319763   0.0961538), wk =   0.0045977
        k(  321) = (   0.0584615   0.0337528   0.0961538), wk =   0.0045977
        k(  322) = (   0.0615385   0.0355292   0.0961538), wk =   0.0045977
        k(  323) = (   0.0646154   0.0373057   0.0961538), wk =   0.0045977
        k(  324) = (   0.0676923   0.0390822   0.0961538), wk =   0.0045977
        k(  325) = (   0.0707692   0.0408586   0.0961538), wk =   0.0045977
        k(  326) = (   0.0738462   0.0426351   0.0961538), wk =   0.0045977
        k(  327) = (   0.0769231   0.0444116   0.0961538), wk =   0.0045977
        k(  328) = (   0.0800000   0.0461880   0.0961538), wk =   0.0045977
        k(  329) = (   0.0830769   0.0479645   0.0961538), wk =   0.0045977
        k(  330) = (   0.0861538   0.0497409   0.0961538), wk =   0.0045977
        k(  331) = (   0.0892308   0.0515174   0.0961538), wk =   0.0045977
        k(  332) = (   0.0923077   0.0532939   0.0961538), wk =   0.0045977
        k(  333) = (   0.0953846   0.0550703   0.0961538), wk =   0.0045977
        k(  334) = (   0.0984615   0.0568468   0.0961538), wk =   0.0045977
        k(  335) = (   0.1015385   0.0586233   0.0961538), wk =   0.0045977
        k(  336) = (   0.1046154   0.0603997   0.0961538), wk =   0.0045977
        k(  337) = (   0.1076923   0.0621762   0.0961538), wk =   0.0045977
        k(  338) = (   0.1107692   0.0639526   0.0961538), wk =   0.0045977
        k(  339) = (   0.1138462   0.0657291   0.0961538), wk =   0.0045977
        k(  340) = (   0.1169231   0.0675056   0.0961538), wk =   0.0045977
        k(  341) = (   0.1200000   0.0692820   0.0961538), wk =   0.0045977
        k(  342) = (   0.1230769   0.0710585   0.0961538), wk =   0.0045977
        k(  343) = (   0.1261538   0.0728350   0.0961538), wk =   0.0045977
        k(  344) = (   0.1292308   0.0746114   0.0961538), wk =   0.0045977
        k(  345) = (   0.1323077   0.0763879   0.0961538), wk =   0.0045977
        k(  346) = (   0.1353846   0.0781643   0.0961538), wk =   0.0045977
        k(  347) = (   0.1384615   0.0799408   0.0961538), wk =   0.0045977
        k(  348) = (   0.1415385   0.0817173   0.0961538), wk =   0.0045977
        k(  349) = (   0.1446154   0.0834937   0.0961538), wk =   0.0045977
        k(  350) = (   0.1476923   0.0852702   0.0961538), wk =   0.0045977
        k(  351) = (   0.1507692   0.0870467   0.0961538), wk =   0.0045977
        k(  352) = (   0.1538462   0.0888231   0.0961538), wk =   0.0045977
        k(  353) = (   0.1538462   0.0888231   0.0925926), wk =   0.0045977
        k(  354) = (   0.1538462   0.0888231   0.0890313), wk =   0.0045977
        k(  355) = (   0.1538462   0.0888231   0.0854701), wk =   0.0045977
        k(  356) = (   0.1538462   0.0888231   0.0819088), wk =   0.0045977
        k(  357) = (   0.1538462   0.0888231   0.0783476), wk =   0.0045977
        k(  358) = (   0.1538462   0.0888231   0.0747863), wk =   0.0045977
        k(  359) = (   0.1538462   0.0888231   0.0712251), wk =   0.0045977
        k(  360) = (   0.1538462   0.0888231   0.0676638), wk =   0.0045977
        k(  361) = (   0.1538462   0.0888231   0.0641026), wk =   0.0045977
        k(  362) = (   0.1538462   0.0888231   0.0605413), wk =   0.0045977
        k(  363) = (   0.1538462   0.0888231   0.0569801), wk =   0.0045977
        k(  364) = (   0.1538462   0.0888231   0.0534188), wk =   0.0045977
        k(  365) = (   0.1538462   0.0888231   0.0498575), wk =   0.0045977
        k(  366) = (   0.1538462   0.0888231   0.0462963), wk =   0.0045977
        k(  367) = (   0.1538462   0.0888231   0.0427350), wk =   0.0045977
        k(  368) = (   0.1538462   0.0888231   0.0391738), wk =   0.0045977
        k(  369) = (   0.1538462   0.0888231   0.0356125), wk =   0.0045977
        k(  370) = (   0.1538462   0.0888231   0.0320513), wk =   0.0045977
        k(  371) = (   0.1538462   0.0888231   0.0284900), wk =   0.0045977
        k(  372) = (   0.1538462   0.0888231   0.0249288), wk =   0.0045977
        k(  373) = (   0.1538462   0.0888231   0.0213675), wk =   0.0045977
        k(  374) = (   0.1538462   0.0888231   0.0178063), wk =   0.0045977
        k(  375) = (   0.1538462   0.0888231   0.0142450), wk =   0.0045977
        k(  376) = (   0.1538462   0.0888231   0.0106838), wk =   0.0045977
        k(  377) = (   0.1538462   0.0888231   0.0071225), wk =   0.0045977
        k(  378) = (   0.1538462   0.0888231   0.0035613), wk =   0.0045977
        k(  379) = (   0.1538462   0.0888231   0.0000000), wk =   0.0045977
        k(  380) = (   0.1520778   0.0918860   0.0000000), wk =   0.0045977
        k(  381) = (   0.1503095   0.0949488   0.0000000), wk =   0.0045977
        k(  382) = (   0.1485411   0.0980117   0.0000000), wk =   0.0045977
        k(  383) = (   0.1467728   0.1010746   0.0000000), wk =   0.0045977
        k(  384) = (   0.1450044   0.1041374   0.0000000), wk =   0.0045977
        k(  385) = (   0.1432361   0.1072003   0.0000000), wk =   0.0045977
        k(  386) = (   0.1414677   0.1102631   0.0000000), wk =   0.0045977
        k(  387) = (   0.1396994   0.1133260   0.0000000), wk =   0.0045977
        k(  388) = (   0.1379310   0.1163889   0.0000000), wk =   0.0045977
        k(  389) = (   0.1361627   0.1194517   0.0000000), wk =   0.0045977
        k(  390) = (   0.1343943   0.1225146   0.0000000), wk =   0.0045977
        k(  391) = (   0.1326260   0.1255774   0.0000000), wk =   0.0045977
        k(  392) = (   0.1308576   0.1286403   0.0000000), wk =   0.0045977
        k(  393) = (   0.1290893   0.1317032   0.0000000), wk =   0.0045977
        k(  394) = (   0.1273209   0.1347660   0.0000000), wk =   0.0045977
        k(  395) = (   0.1255526   0.1378289   0.0000000), wk =   0.0045977
        k(  396) = (   0.1237842   0.1408917   0.0000000), wk =   0.0045977
        k(  397) = (   0.1220159   0.1439546   0.0000000), wk =   0.0045977
        k(  398) = (   0.1202475   0.1470175   0.0000000), wk =   0.0045977
        k(  399) = (   0.1184792   0.1500803   0.0000000), wk =   0.0045977
        k(  400) = (   0.1167108   0.1531432   0.0000000), wk =   0.0045977
        k(  401) = (   0.1149425   0.1562060   0.0000000), wk =   0.0045977
        k(  402) = (   0.1131741   0.1592689   0.0000000), wk =   0.0045977
        k(  403) = (   0.1114058   0.1623318   0.0000000), wk =   0.0045977
        k(  404) = (   0.1096374   0.1653946   0.0000000), wk =   0.0045977
        k(  405) = (   0.1078691   0.1684575   0.0000000), wk =   0.0045977
        k(  406) = (   0.1061007   0.1715203   0.0000000), wk =   0.0045977
        k(  407) = (   0.1043324   0.1745832   0.0000000), wk =   0.0045977
        k(  408) = (   0.1025640   0.1776461   0.0000000), wk =   0.0045977
        k(  409) = (   0.1025640   0.1776461   0.0035613), wk =   0.0045977
        k(  410) = (   0.1025640   0.1776461   0.0071225), wk =   0.0045977
        k(  411) = (   0.1025640   0.1776461   0.0106838), wk =   0.0045977
        k(  412) = (   0.1025640   0.1776461   0.0142450), wk =   0.0045977
        k(  413) = (   0.1025640   0.1776461   0.0178063), wk =   0.0045977
        k(  414) = (   0.1025640   0.1776461   0.0213675), wk =   0.0045977
        k(  415) = (   0.1025640   0.1776461   0.0249288), wk =   0.0045977
        k(  416) = (   0.1025640   0.1776461   0.0284900), wk =   0.0045977
        k(  417) = (   0.1025640   0.1776461   0.0320513), wk =   0.0045977
        k(  418) = (   0.1025640   0.1776461   0.0356125), wk =   0.0045977
        k(  419) = (   0.1025640   0.1776461   0.0391738), wk =   0.0045977
        k(  420) = (   0.1025640   0.1776461   0.0427350), wk =   0.0045977
        k(  421) = (   0.1025640   0.1776461   0.0462963), wk =   0.0045977
        k(  422) = (   0.1025640   0.1776461   0.0498575), wk =   0.0045977
        k(  423) = (   0.1025640   0.1776461   0.0534188), wk =   0.0045977
        k(  424) = (   0.1025640   0.1776461   0.0569801), wk =   0.0045977
        k(  425) = (   0.1025640   0.1776461   0.0605413), wk =   0.0045977
        k(  426) = (   0.1025640   0.1776461   0.0641026), wk =   0.0045977
        k(  427) = (   0.1025640   0.1776461   0.0676638), wk =   0.0045977
        k(  428) = (   0.1025640   0.1776461   0.0712251), wk =   0.0045977
        k(  429) = (   0.1025640   0.1776461   0.0747863), wk =   0.0045977
        k(  430) = (   0.1025640   0.1776461   0.0783476), wk =   0.0045977
        k(  431) = (   0.1025640   0.1776461   0.0819088), wk =   0.0045977
        k(  432) = (   0.1025640   0.1776461   0.0854701), wk =   0.0045977
        k(  433) = (   0.1025640   0.1776461   0.0890313), wk =   0.0045977
        k(  434) = (   0.1025640   0.1776461   0.0925926), wk =   0.0045977
        k(  435) = (   0.1025640   0.1776461   0.0961538), wk =   0.0045977

                       cryst. coord.
        k(    1) = (   0.0000000   0.0000000   0.0000000), wk =   0.0045977
        k(    2) = (   0.0100000   0.0000000   0.0000000), wk =   0.0045977
        k(    3) = (   0.0200000   0.0000000   0.0000000), wk =   0.0045977
        k(    4) = (   0.0300000   0.0000000   0.0000000), wk =   0.0045977
        k(    5) = (   0.0400000   0.0000000   0.0000000), wk =   0.0045977
        k(    6) = (   0.0500000   0.0000000   0.0000000), wk =   0.0045977
        k(    7) = (   0.0600000   0.0000000   0.0000000), wk =   0.0045977
        k(    8) = (   0.0700000   0.0000000   0.0000000), wk =   0.0045977
        k(    9) = (   0.0800000   0.0000000   0.0000000), wk =   0.0045977
        k(   10) = (   0.0900000   0.0000000   0.0000000), wk =   0.0045977
        k(   11) = (   0.1000000   0.0000000   0.0000000), wk =   0.0045977
        k(   12) = (   0.1100000   0.0000000   0.0000000), wk =   0.0045977
        k(   13) = (   0.1200000   0.0000000   0.0000000), wk =   0.0045977
        k(   14) = (   0.1300000   0.0000000   0.0000000), wk =   0.0045977
        k(   15) = (   0.1400000   0.0000000   0.0000000), wk =   0.0045977
        k(   16) = (   0.1500000   0.0000000   0.0000000), wk =   0.0045977
        k(   17) = (   0.1600000   0.0000000   0.0000000), wk =   0.0045977
        k(   18) = (   0.1700000   0.0000000   0.0000000), wk =   0.0045977
        k(   19) = (   0.1800000   0.0000000   0.0000000), wk =   0.0045977
        k(   20) = (   0.1900000   0.0000000   0.0000000), wk =   0.0045977
        k(   21) = (   0.2000000   0.0000000   0.0000000), wk =   0.0045977
        k(   22) = (   0.2100000   0.0000000   0.0000000), wk =   0.0045977
        k(   23) = (   0.2200000   0.0000000   0.0000000), wk =   0.0045977
        k(   24) = (   0.2300000   0.0000000   0.0000000), wk =   0.0045977
        k(   25) = (   0.2400000   0.0000000   0.0000000), wk =   0.0045977
        k(   26) = (   0.2500000   0.0000000   0.0000000), wk =   0.0045977
        k(   27) = (   0.2600000   0.0000000   0.0000000), wk =   0.0045977
        k(   28) = (   0.2700000   0.0000000   0.0000000), wk =   0.0045977
        k(   29) = (   0.2800000   0.0000000   0.0000000), wk =   0.0045977
        k(   30) = (   0.2900000   0.0000000   0.0000000), wk =   0.0045977
        k(   31) = (   0.3000000   0.0000000   0.0000000), wk =   0.0045977
        k(   32) = (   0.3100000   0.0000000   0.0000000), wk =   0.0045977
        k(   33) = (   0.3200000   0.0000000   0.0000000), wk =   0.0045977
        k(   34) = (   0.3300000   0.0000000   0.0000000), wk =   0.0045977
        k(   35) = (   0.3400000   0.0000000   0.0000000), wk =   0.0045977
        k(   36) = (   0.3500000   0.0000000   0.0000000), wk =   0.0045977
        k(   37) = (   0.3600000   0.0000000   0.0000000), wk =   0.0045977
        k(   38) = (   0.3700000   0.0000000   0.0000000), wk =   0.0045977
        k(   39) = (   0.3800000   0.0000000   0.0000000), wk =   0.0045977
        k(   40) = (   0.3900000   0.0000000   0.0000000), wk =   0.0045977
        k(   41) = (   0.4000000   0.0000000   0.0000000), wk =   0.0045977
        k(   42) = (   0.4100000   0.0000000   0.0000000), wk =   0.0045977
        k(   43) = (   0.4200000   0.0000000   0.0000000), wk =   0.0045977
        k(   44) = (   0.4300000   0.0000000   0.0000000), wk =   0.0045977
        k(   45) = (   0.4400000   0.0000000   0.0000000), wk =   0.0045977
        k(   46) = (   0.4500000   0.0000000   0.0000000), wk =   0.0045977
        k(   47) = (   0.4600000   0.0000000   0.0000000), wk =   0.0045977
        k(   48) = (   0.4700000   0.0000000   0.0000000), wk =   0.0045977
        k(   49) = (   0.4800000   0.0000000   0.0000000), wk =   0.0045977
        k(   50) = (   0.4900000   0.0000000   0.0000000), wk =   0.0045977
        k(   51) = (   0.5000000   0.0000000   0.0000000), wk =   0.0045977
        k(   52) = (   0.4942529   0.0114942   0.0000000), wk =   0.0045977
        k(   53) = (   0.4885057   0.0229885   0.0000000), wk =   0.0045977
        k(   54) = (   0.4827586   0.0344827   0.0000000), wk =   0.0045977
        k(   55) = (   0.4770114   0.0459770   0.0000000), wk =   0.0045977
        k(   56) = (   0.4712643   0.0574712   0.0000000), wk =   0.0045977
        k(   57) = (   0.4655172   0.0689654   0.0000000), wk =   0.0045977
        k(   58) = (   0.4597700   0.0804597   0.0000000), wk =   0.0045977
        k(   59) = (   0.4540229   0.0919539   0.0000000), wk =   0.0045977
        k(   60) = (   0.4482758   0.1034482   0.0000000), wk =   0.0045977
        k(   61) = (   0.4425286   0.1149424   0.0000000), wk =   0.0045977
        k(   62) = (   0.4367815   0.1264367   0.0000000), wk =   0.0045977
        k(   63) = (   0.4310343   0.1379309   0.0000000), wk =   0.0045977
        k(   64) = (   0.4252872   0.1494251   0.0000000), wk =   0.0045977
        k(   65) = (   0.4195401   0.1609194   0.0000000), wk =   0.0045977
        k(   66) = (   0.4137929   0.1724136   0.0000000), wk =   0.0045977
        k(   67) = (   0.4080458   0.1839079   0.0000000), wk =   0.0045977
        k(   68) = (   0.4022987   0.1954021   0.0000000), wk =   0.0045977
        k(   69) = (   0.3965515   0.2068963   0.0000000), wk =   0.0045977
        k(   70) = (   0.3908044   0.2183906   0.0000000), wk =   0.0045977
        k(   71) = (   0.3850572   0.2298848   0.0000000), wk =   0.0045977
        k(   72) = (   0.3793101   0.2413791   0.0000000), wk =   0.0045977
        k(   73) = (   0.3735630   0.2528733   0.0000000), wk =   0.0045977
        k(   74) = (   0.3678158   0.2643676   0.0000000), wk =   0.0045977
        k(   75) = (   0.3620687   0.2758618   0.0000000), wk =   0.0045977
        k(   76) = (   0.3563216   0.2873560   0.0000000), wk =   0.0045977
        k(   77) = (   0.3505744   0.2988503   0.0000000), wk =   0.0045977
        k(   78) = (   0.3448273   0.3103445   0.0000000), wk =   0.0045977
        k(   79) = (   0.3390801   0.3218388   0.0000000), wk =   0.0045977
        k(   80) = (   0.3333330   0.3333330   0.0000000), wk =   0.0045977
        k(   81) = (   0.3275859   0.3275859   0.0000000), wk =   0.0045977
        k(   82) = (   0.3218388   0.3218388   0.0000000), wk =   0.0045977
        k(   83) = (   0.3160916   0.3160916   0.0000000), wk =   0.0045977
        k(   84) = (   0.3103445   0.3103445   0.0000000), wk =   0.0045977
        k(   85) = (   0.3045974   0.3045974   0.0000000), wk =   0.0045977
        k(   86) = (   0.2988503   0.2988503   0.0000000), wk =   0.0045977
        k(   87) = (   0.2931032   0.2931032   0.0000000), wk =   0.0045977
        k(   88) = (   0.2873560   0.2873560   0.0000000), wk =   0.0045977
        k(   89) = (   0.2816089   0.2816089   0.0000000), wk =   0.0045977
        k(   90) = (   0.2758618   0.2758618   0.0000000), wk =   0.0045977
        k(   91) = (   0.2701147   0.2701147   0.0000000), wk =   0.0045977
        k(   92) = (   0.2643676   0.2643676   0.0000000), wk =   0.0045977
        k(   93) = (   0.2586204   0.2586204   0.0000000), wk =   0.0045977
        k(   94) = (   0.2528733   0.2528733   0.0000000), wk =   0.0045977
        k(   95) = (   0.2471262   0.2471262   0.0000000), wk =   0.0045977
        k(   96) = (   0.2413791   0.2413791   0.0000000), wk =   0.0045977
        k(   97) = (   0.2356319   0.2356319   0.0000000), wk =   0.0045977
        k(   98) = (   0.2298848   0.2298848   0.0000000), wk =   0.0045977
        k(   99) = (   0.2241377   0.2241377   0.0000000), wk =   0.0045977
        k(  100) = (   0.2183906   0.2183906   0.0000000), wk =   0.0045977
        k(  101) = (   0.2126435   0.2126435   0.0000000), wk =   0.0045977
        k(  102) = (   0.2068963   0.2068963   0.0000000), wk =   0.0045977
        k(  103) = (   0.2011492   0.2011492   0.0000000), wk =   0.0045977
        k(  104) = (   0.1954021   0.1954021   0.0000000), wk =   0.0045977
        k(  105) = (   0.1896550   0.1896550   0.0000000), wk =   0.0045977
        k(  106) = (   0.1839079   0.1839079   0.0000000), wk =   0.0045977
        k(  107) = (   0.1781607   0.1781607   0.0000000), wk =   0.0045977
        k(  108) = (   0.1724136   0.1724136   0.0000000), wk =   0.0045977
        k(  109) = (   0.1666665   0.1666665   0.0000000), wk =   0.0045977
        k(  110) = (   0.1609194   0.1609194   0.0000000), wk =   0.0045977
        k(  111) = (   0.1551723   0.1551723   0.0000000), wk =   0.0045977
        k(  112) = (   0.1494251   0.1494251   0.0000000), wk =   0.0045977
        k(  113) = (   0.1436780   0.1436780   0.0000000), wk =   0.0045977
        k(  114) = (   0.1379309   0.1379309   0.0000000), wk =   0.0045977
        k(  115) = (   0.1321838   0.1321838   0.0000000), wk =   0.0045977
        k(  116) = (   0.1264367   0.1264367   0.0000000), wk =   0.0045977
        k(  117) = (   0.1206895   0.1206895   0.0000000), wk =   0.0045977
        k(  118) = (   0.1149424   0.1149424   0.0000000), wk =   0.0045977
        k(  119) = (   0.1091953   0.1091953   0.0000000), wk =   0.0045977
        k(  120) = (   0.1034482   0.1034482   0.0000000), wk =   0.0045977
        k(  121) = (   0.0977011   0.0977011   0.0000000), wk =   0.0045977
        k(  122) = (   0.0919539   0.0919539   0.0000000), wk =   0.0045977
        k(  123) = (   0.0862068   0.0862068   0.0000000), wk =   0.0045977
        k(  124) = (   0.0804597   0.0804597   0.0000000), wk =   0.0045977
        k(  125) = (   0.0747126   0.0747126   0.0000000), wk =   0.0045977
        k(  126) = (   0.0689654   0.0689654   0.0000000), wk =   0.0045977
        k(  127) = (   0.0632183   0.0632183   0.0000000), wk =   0.0045977
        k(  128) = (   0.0574712   0.0574712   0.0000000), wk =   0.0045977
        k(  129) = (   0.0517241   0.0517241   0.0000000), wk =   0.0045977
        k(  130) = (   0.0459770   0.0459770   0.0000000), wk =   0.0045977
        k(  131) = (   0.0402298   0.0402298   0.0000000), wk =   0.0045977
        k(  132) = (   0.0344827   0.0344827   0.0000000), wk =   0.0045977
        k(  133) = (   0.0287356   0.0287356   0.0000000), wk =   0.0045977
        k(  134) = (   0.0229885   0.0229885   0.0000000), wk =   0.0045977
        k(  135) = (   0.0172414   0.0172414   0.0000000), wk =   0.0045977
        k(  136) = (   0.0114942   0.0114942   0.0000000), wk =   0.0045977
        k(  137) = (   0.0057471   0.0057471   0.0000000), wk =   0.0045977
        k(  138) = (   0.0000000   0.0000000   0.0000000), wk =   0.0045977
        k(  139) = (   0.0000000   0.0000000   0.0185185), wk =   0.0045977
        k(  140) = (   0.0000000   0.0000000   0.0370370), wk =   0.0045977
        k(  141) = (   0.0000000   0.0000000   0.0555556), wk =   0.0045977
        k(  142) = (   0.0000000   0.0000000   0.0740741), wk =   0.0045977
        k(  143) = (   0.0000000   0.0000000   0.0925926), wk =   0.0045977
        k(  144) = (   0.0000000   0.0000000   0.1111111), wk =   0.0045977
        k(  145) = (   0.0000000   0.0000000   0.1296296), wk =   0.0045977
        k(  146) = (   0.0000000   0.0000000   0.1481481), wk =   0.0045977
        k(  147) = (   0.0000000   0.0000000   0.1666667), wk =   0.0045977
        k(  148) = (   0.0000000   0.0000000   0.1851852), wk =   0.0045977
        k(  149) = (   0.0000000   0.0000000   0.2037037), wk =   0.0045977
        k(  150) = (   0.0000000   0.0000000   0.2222222), wk =   0.0045977
        k(  151) = (   0.0000000   0.0000000   0.2407407), wk =   0.0045977
        k(  152) = (   0.0000000   0.0000000   0.2592593), wk =   0.0045977
        k(  153) = (   0.0000000   0.0000000   0.2777778), wk =   0.0045977
        k(  154) = (   0.0000000   0.0000000   0.2962963), wk =   0.0045977
        k(  155) = (   0.0000000   0.0000000   0.3148148), wk =   0.0045977
        k(  156) = (   0.0000000   0.0000000   0.3333333), wk =   0.0045977
        k(  157) = (   0.0000000   0.0000000   0.3518519), wk =   0.0045977
        k(  158) = (   0.0000000   0.0000000   0.3703704), wk =   0.0045977
        k(  159) = (   0.0000000   0.0000000   0.3888889), wk =   0.0045977
        k(  160) = (   0.0000000   0.0000000   0.4074074), wk =   0.0045977
        k(  161) = (   0.0000000   0.0000000   0.4259259), wk =   0.0045977
        k(  162) = (   0.0000000   0.0000000   0.4444444), wk =   0.0045977
        k(  163) = (   0.0000000   0.0000000   0.4629630), wk =   0.0045977
        k(  164) = (   0.0000000   0.0000000   0.4814815), wk =   0.0045977
        k(  165) = (   0.0000000   0.0000000   0.5000000), wk =   0.0045977
        k(  166) = (   0.0100000   0.0000000   0.5000000), wk =   0.0045977
        k(  167) = (   0.0200000   0.0000000   0.5000000), wk =   0.0045977
        k(  168) = (   0.0300000   0.0000000   0.5000000), wk =   0.0045977
        k(  169) = (   0.0400000   0.0000000   0.5000000), wk =   0.0045977
        k(  170) = (   0.0500000   0.0000000   0.5000000), wk =   0.0045977
        k(  171) = (   0.0600000   0.0000000   0.5000000), wk =   0.0045977
        k(  172) = (   0.0700000   0.0000000   0.5000000), wk =   0.0045977
        k(  173) = (   0.0800000   0.0000000   0.5000000), wk =   0.0045977
        k(  174) = (   0.0900000   0.0000000   0.5000000), wk =   0.0045977
        k(  175) = (   0.1000000   0.0000000   0.5000000), wk =   0.0045977
        k(  176) = (   0.1100000   0.0000000   0.5000000), wk =   0.0045977
        k(  177) = (   0.1200000   0.0000000   0.5000000), wk =   0.0045977
        k(  178) = (   0.1300000   0.0000000   0.5000000), wk =   0.0045977
        k(  179) = (   0.1400000   0.0000000   0.5000000), wk =   0.0045977
        k(  180) = (   0.1500000   0.0000000   0.5000000), wk =   0.0045977
        k(  181) = (   0.1600000   0.0000000   0.5000000), wk =   0.0045977
        k(  182) = (   0.1700000   0.0000000   0.5000000), wk =   0.0045977
        k(  183) = (   0.1800000   0.0000000   0.5000000), wk =   0.0045977
        k(  184) = (   0.1900000   0.0000000   0.5000000), wk =   0.0045977
        k(  185) = (   0.2000000   0.0000000   0.5000000), wk =   0.0045977
        k(  186) = (   0.2100000   0.0000000   0.5000000), wk =   0.0045977
        k(  187) = (   0.2200000   0.0000000   0.5000000), wk =   0.0045977
        k(  188) = (   0.2300000   0.0000000   0.5000000), wk =   0.0045977
        k(  189) = (   0.2400000   0.0000000   0.5000000), wk =   0.0045977
        k(  190) = (   0.2500000   0.0000000   0.5000000), wk =   0.0045977
        k(  191) = (   0.2600000   0.0000000   0.5000000), wk =   0.0045977
        k(  192) = (   0.2700000   0.0000000   0.5000000), wk =   0.0045977
        k(  193) = (   0.2800000   0.0000000   0.5000000), wk =   0.0045977
        k(  194) = (   0.2900000   0.0000000   0.5000000), wk =   0.0045977
        k(  195) = (   0.3000000   0.0000000   0.5000000), wk =   0.0045977
        k(  196) = (   0.3100000   0.0000000   0.5000000), wk =   0.0045977
        k(  197) = (   0.3200000   0.0000000   0.5000000), wk =   0.0045977
        k(  198) = (   0.3300000   0.0000000   0.5000000), wk =   0.0045977
        k(  199) = (   0.3400000   0.0000000   0.5000000), wk =   0.0045977
        k(  200) = (   0.3500000   0.0000000   0.5000000), wk =   0.0045977
        k(  201) = (   0.3600000   0.0000000   0.5000000), wk =   0.0045977
        k(  202) = (   0.3700000   0.0000000   0.5000000), wk =   0.0045977
        k(  203) = (   0.3800000   0.0000000   0.5000000), wk =   0.0045977
        k(  204) = (   0.3900000   0.0000000   0.5000000), wk =   0.0045977
        k(  205) = (   0.4000000   0.0000000   0.5000000), wk =   0.0045977
        k(  206) = (   0.4100000   0.0000000   0.5000000), wk =   0.0045977
        k(  207) = (   0.4200000   0.0000000   0.5000000), wk =   0.0045977
        k(  208) = (   0.4300000   0.0000000   0.5000000), wk =   0.0045977
        k(  209) = (   0.4400000   0.0000000   0.5000000), wk =   0.0045977
        k(  210) = (   0.4500000   0.0000000   0.5000000), wk =   0.0045977
        k(  211) = (   0.4600000   0.0000000   0.5000000), wk =   0.0045977
        k(  212) = (   0.4700000   0.0000000   0.5000000), wk =   0.0045977
        k(  213) = (   0.4800000   0.0000000   0.5000000), wk =   0.0045977
        k(  214) = (   0.4900000   0.0000000   0.5000000), wk =   0.0045977
        k(  215) = (   0.5000000   0.0000000   0.5000000), wk =   0.0045977
        k(  216) = (   0.4942529   0.0114942   0.5000000), wk =   0.0045977
        k(  217) = (   0.4885057   0.0229885   0.5000000), wk =   0.0045977
        k(  218) = (   0.4827586   0.0344827   0.5000000), wk =   0.0045977
        k(  219) = (   0.4770114   0.0459770   0.5000000), wk =   0.0045977
        k(  220) = (   0.4712643   0.0574712   0.5000000), wk =   0.0045977
        k(  221) = (   0.4655172   0.0689654   0.5000000), wk =   0.0045977
        k(  222) = (   0.4597700   0.0804597   0.5000000), wk =   0.0045977
        k(  223) = (   0.4540229   0.0919539   0.5000000), wk =   0.0045977
        k(  224) = (   0.4482758   0.1034482   0.5000000), wk =   0.0045977
        k(  225) = (   0.4425286   0.1149424   0.5000000), wk =   0.0045977
        k(  226) = (   0.4367815   0.1264367   0.5000000), wk =   0.0045977
        k(  227) = (   0.4310343   0.1379309   0.5000000), wk =   0.0045977
        k(  228) = (   0.4252872   0.1494251   0.5000000), wk =   0.0045977
        k(  229) = (   0.4195401   0.1609194   0.5000000), wk =   0.0045977
        k(  230) = (   0.4137929   0.1724136   0.5000000), wk =   0.0045977
        k(  231) = (   0.4080458   0.1839079   0.5000000), wk =   0.0045977
        k(  232) = (   0.4022987   0.1954021   0.5000000), wk =   0.0045977
        k(  233) = (   0.3965515   0.2068963   0.5000000), wk =   0.0045977
        k(  234) = (   0.3908044   0.2183906   0.5000000), wk =   0.0045977
        k(  235) = (   0.3850572   0.2298848   0.5000000), wk =   0.0045977
        k(  236) = (   0.3793101   0.2413791   0.5000000), wk =   0.0045977
        k(  237) = (   0.3735630   0.2528733   0.5000000), wk =   0.0045977
        k(  238) = (   0.3678158   0.2643676   0.5000000), wk =   0.0045977
        k(  239) = (   0.3620687   0.2758618   0.5000000), wk =   0.0045977
        k(  240) = (   0.3563216   0.2873560   0.5000000), wk =   0.0045977
        k(  241) = (   0.3505744   0.2988503   0.5000000), wk =   0.0045977
        k(  242) = (   0.3448273   0.3103445   0.5000000), wk =   0.0045977
        k(  243) = (   0.3390801   0.3218388   0.5000000), wk =   0.0045977
        k(  244) = (   0.3333330   0.3333330   0.5000000), wk =   0.0045977
        k(  245) = (   0.3275859   0.3275859   0.5000000), wk =   0.0045977
        k(  246) = (   0.3218388   0.3218388   0.5000000), wk =   0.0045977
        k(  247) = (   0.3160916   0.3160916   0.5000000), wk =   0.0045977
        k(  248) = (   0.3103445   0.3103445   0.5000000), wk =   0.0045977
        k(  249) = (   0.3045974   0.3045974   0.5000000), wk =   0.0045977
        k(  250) = (   0.2988503   0.2988503   0.5000000), wk =   0.0045977
        k(  251) = (   0.2931032   0.2931032   0.5000000), wk =   0.0045977
        k(  252) = (   0.2873560   0.2873560   0.5000000), wk =   0.0045977
        k(  253) = (   0.2816089   0.2816089   0.5000000), wk =   0.0045977
        k(  254) = (   0.2758618   0.2758618   0.5000000), wk =   0.0045977
        k(  255) = (   0.2701147   0.2701147   0.5000000), wk =   0.0045977
        k(  256) = (   0.2643676   0.2643676   0.5000000), wk =   0.0045977
        k(  257) = (   0.2586204   0.2586204   0.5000000), wk =   0.0045977
        k(  258) = (   0.2528733   0.2528733   0.5000000), wk =   0.0045977
        k(  259) = (   0.2471262   0.2471262   0.5000000), wk =   0.0045977
        k(  260) = (   0.2413791   0.2413791   0.5000000), wk =   0.0045977
        k(  261) = (   0.2356319   0.2356319   0.5000000), wk =   0.0045977
        k(  262) = (   0.2298848   0.2298848   0.5000000), wk =   0.0045977
        k(  263) = (   0.2241377   0.2241377   0.5000000), wk =   0.0045977
        k(  264) = (   0.2183906   0.2183906   0.5000000), wk =   0.0045977
        k(  265) = (   0.2126435   0.2126435   0.5000000), wk =   0.0045977
        k(  266) = (   0.2068963   0.2068963   0.5000000), wk =   0.0045977
        k(  267) = (   0.2011492   0.2011492   0.5000000), wk =   0.0045977
        k(  268) = (   0.1954021   0.1954021   0.5000000), wk =   0.0045977
        k(  269) = (   0.1896550   0.1896550   0.5000000), wk =   0.0045977
        k(  270) = (   0.1839079   0.1839079   0.5000000), wk =   0.0045977
        k(  271) = (   0.1781607   0.1781607   0.5000000), wk =   0.0045977
        k(  272) = (   0.1724136   0.1724136   0.5000000), wk =   0.0045977
        k(  273) = (   0.1666665   0.1666665   0.5000000), wk =   0.0045977
        k(  274) = (   0.1609194   0.1609194   0.5000000), wk =   0.0045977
        k(  275) = (   0.1551723   0.1551723   0.5000000), wk =   0.0045977
        k(  276) = (   0.1494251   0.1494251   0.5000000), wk =   0.0045977
        k(  277) = (   0.1436780   0.1436780   0.5000000), wk =   0.0045977
        k(  278) = (   0.1379309   0.1379309   0.5000000), wk =   0.0045977
        k(  279) = (   0.1321838   0.1321838   0.5000000), wk =   0.0045977
        k(  280) = (   0.1264367   0.1264367   0.5000000), wk =   0.0045977
        k(  281) = (   0.1206895   0.1206895   0.5000000), wk =   0.0045977
        k(  282) = (   0.1149424   0.1149424   0.5000000), wk =   0.0045977
        k(  283) = (   0.1091953   0.1091953   0.5000000), wk =   0.0045977
        k(  284) = (   0.1034482   0.1034482   0.5000000), wk =   0.0045977
        k(  285) = (   0.0977011   0.0977011   0.5000000), wk =   0.0045977
        k(  286) = (   0.0919539   0.0919539   0.5000000), wk =   0.0045977
        k(  287) = (   0.0862068   0.0862068   0.5000000), wk =   0.0045977
        k(  288) = (   0.0804597   0.0804597   0.5000000), wk =   0.0045977
        k(  289) = (   0.0747126   0.0747126   0.5000000), wk =   0.0045977
        k(  290) = (   0.0689654   0.0689654   0.5000000), wk =   0.0045977
        k(  291) = (   0.0632183   0.0632183   0.5000000), wk =   0.0045977
        k(  292) = (   0.0574712   0.0574712   0.5000000), wk =   0.0045977
        k(  293) = (   0.0517241   0.0517241   0.5000000), wk =   0.0045977
        k(  294) = (   0.0459770   0.0459770   0.5000000), wk =   0.0045977
        k(  295) = (   0.0402298   0.0402298   0.5000000), wk =   0.0045977
        k(  296) = (   0.0344827   0.0344827   0.5000000), wk =   0.0045977
        k(  297) = (   0.0287356   0.0287356   0.5000000), wk =   0.0045977
        k(  298) = (   0.0229885   0.0229885   0.5000000), wk =   0.0045977
        k(  299) = (   0.0172414   0.0172414   0.5000000), wk =   0.0045977
        k(  300) = (   0.0114942   0.0114942   0.5000000), wk =   0.0045977
        k(  301) = (   0.0057471   0.0057471   0.5000000), wk =   0.0045977
        k(  302) = (   0.0000000   0.0000000   0.5000000), wk =   0.0045977
        k(  303) = (   0.0100000   0.0000000   0.5000000), wk =   0.0045977
        k(  304) = (   0.0200000   0.0000000   0.5000000), wk =   0.0045977
        k(  305) = (   0.0300000   0.0000000   0.5000000), wk =   0.0045977
        k(  306) = (   0.0400000   0.0000000   0.5000000), wk =   0.0045977
        k(  307) = (   0.0500000   0.0000000   0.5000000), wk =   0.0045977
        k(  308) = (   0.0600000   0.0000000   0.5000000), wk =   0.0045977
        k(  309) = (   0.0700000   0.0000000   0.5000000), wk =   0.0045977
        k(  310) = (   0.0800000   0.0000000   0.5000000), wk =   0.0045977
        k(  311) = (   0.0900000   0.0000000   0.5000000), wk =   0.0045977
        k(  312) = (   0.1000000   0.0000000   0.5000000), wk =   0.0045977
        k(  313) = (   0.1100000   0.0000000   0.5000000), wk =   0.0045977
        k(  314) = (   0.1200000   0.0000000   0.5000000), wk =   0.0045977
        k(  315) = (   0.1300000   0.0000000   0.5000000), wk =   0.0045977
        k(  316) = (   0.1400000   0.0000000   0.5000000), wk =   0.0045977
        k(  317) = (   0.1500000   0.0000000   0.5000000), wk =   0.0045977
        k(  318) = (   0.1600000   0.0000000   0.5000000), wk =   0.0045977
        k(  319) = (   0.1700000   0.0000000   0.5000000), wk =   0.0045977
        k(  320) = (   0.1800000   0.0000000   0.5000000), wk =   0.0045977
        k(  321) = (   0.1900000   0.0000000   0.5000000), wk =   0.0045977
        k(  322) = (   0.2000000   0.0000000   0.5000000), wk =   0.0045977
        k(  323) = (   0.2100000   0.0000000   0.5000000), wk =   0.0045977
        k(  324) = (   0.2200000   0.0000000   0.5000000), wk =   0.0045977
        k(  325) = (   0.2300000   0.0000000   0.5000000), wk =   0.0045977
        k(  326) = (   0.2400000   0.0000000   0.5000000), wk =   0.0045977
        k(  327) = (   0.2500000   0.0000000   0.5000000), wk =   0.0045977
        k(  328) = (   0.2600000   0.0000000   0.5000000), wk =   0.0045977
        k(  329) = (   0.2700000   0.0000000   0.5000000), wk =   0.0045977
        k(  330) = (   0.2800000   0.0000000   0.5000000), wk =   0.0045977
        k(  331) = (   0.2900000   0.0000000   0.5000000), wk =   0.0045977
        k(  332) = (   0.3000000   0.0000000   0.5000000), wk =   0.0045977
        k(  333) = (   0.3100000   0.0000000   0.5000000), wk =   0.0045977
        k(  334) = (   0.3200000   0.0000000   0.5000000), wk =   0.0045977
        k(  335) = (   0.3300000   0.0000000   0.5000000), wk =   0.0045977
        k(  336) = (   0.3400000   0.0000000   0.5000000), wk =   0.0045977
        k(  337) = (   0.3500000   0.0000000   0.5000000), wk =   0.0045977
        k(  338) = (   0.3600000   0.0000000   0.5000000), wk =   0.0045977
        k(  339) = (   0.3700000   0.0000000   0.5000000), wk =   0.0045977
        k(  340) = (   0.3800000   0.0000000   0.5000000), wk =   0.0045977
        k(  341) = (   0.3900000   0.0000000   0.5000000), wk =   0.0045977
        k(  342) = (   0.4000000   0.0000000   0.5000000), wk =   0.0045977
        k(  343) = (   0.4100000   0.0000000   0.5000000), wk =   0.0045977
        k(  344) = (   0.4200000   0.0000000   0.5000000), wk =   0.0045977
        k(  345) = (   0.4300000   0.0000000   0.5000000), wk =   0.0045977
        k(  346) = (   0.4400000   0.0000000   0.5000000), wk =   0.0045977
        k(  347) = (   0.4500000   0.0000000   0.5000000), wk =   0.0045977
        k(  348) = (   0.4600000   0.0000000   0.5000000), wk =   0.0045977
        k(  349) = (   0.4700000   0.0000000   0.5000000), wk =   0.0045977
        k(  350) = (   0.4800000   0.0000000   0.5000000), wk =   0.0045977
        k(  351) = (   0.4900000   0.0000000   0.5000000), wk =   0.0045977
        k(  352) = (   0.5000000   0.0000000   0.5000000), wk =   0.0045977
        k(  353) = (   0.5000000   0.0000000   0.4814815), wk =   0.0045977
        k(  354) = (   0.5000000   0.0000000   0.4629630), wk =   0.0045977
        k(  355) = (   0.5000000   0.0000000   0.4444444), wk =   0.0045977
        k(  356) = (   0.5000000   0.0000000   0.4259259), wk =   0.0045977
        k(  357) = (   0.5000000   0.0000000   0.4074074), wk =   0.0045977
        k(  358) = (   0.5000000   0.0000000   0.3888889), wk =   0.0045977
        k(  359) = (   0.5000000   0.0000000   0.3703704), wk =   0.0045977
        k(  360) = (   0.5000000   0.0000000   0.3518519), wk =   0.0045977
        k(  361) = (   0.5000000   0.0000000   0.3333333), wk =   0.0045977
        k(  362) = (   0.5000000   0.0000000   0.3148148), wk =   0.0045977
        k(  363) = (   0.5000000   0.0000000   0.2962963), wk =   0.0045977
        k(  364) = (   0.5000000   0.0000000   0.2777778), wk =   0.0045977
        k(  365) = (   0.5000000   0.0000000   0.2592593), wk =   0.0045977
        k(  366) = (   0.5000000   0.0000000   0.2407407), wk =   0.0045977
        k(  367) = (   0.5000000   0.0000000   0.2222222), wk =   0.0045977
        k(  368) = (   0.5000000   0.0000000   0.2037037), wk =   0.0045977
        k(  369) = (   0.5000000   0.0000000   0.1851852), wk =   0.0045977
        k(  370) = (   0.5000000   0.0000000   0.1666667), wk =   0.0045977
        k(  371) = (   0.5000000   0.0000000   0.1481481), wk =   0.0045977
        k(  372) = (   0.5000000   0.0000000   0.1296296), wk =   0.0045977
        k(  373) = (   0.5000000   0.0000000   0.1111111), wk =   0.0045977
        k(  374) = (   0.5000000   0.0000000   0.0925926), wk =   0.0045977
        k(  375) = (   0.5000000   0.0000000   0.0740741), wk =   0.0045977
        k(  376) = (   0.5000000   0.0000000   0.0555556), wk =   0.0045977
        k(  377) = (   0.5000000   0.0000000   0.0370370), wk =   0.0045977
        k(  378) = (   0.5000000   0.0000000   0.0185185), wk =   0.0045977
        k(  379) = (   0.5000000   0.0000000   0.0000000), wk =   0.0045977
        k(  380) = (   0.4942529   0.0114942   0.0000000), wk =   0.0045977
        k(  381) = (   0.4885057   0.0229885   0.0000000), wk =   0.0045977
        k(  382) = (   0.4827586   0.0344827   0.0000000), wk =   0.0045977
        k(  383) = (   0.4770114   0.0459770   0.0000000), wk =   0.0045977
        k(  384) = (   0.4712643   0.0574712   0.0000000), wk =   0.0045977
        k(  385) = (   0.4655172   0.0689654   0.0000000), wk =   0.0045977
        k(  386) = (   0.4597700   0.0804597   0.0000000), wk =   0.0045977
        k(  387) = (   0.4540229   0.0919539   0.0000000), wk =   0.0045977
        k(  388) = (   0.4482758   0.1034482   0.0000000), wk =   0.0045977
        k(  389) = (   0.4425286   0.1149424   0.0000000), wk =   0.0045977
        k(  390) = (   0.4367815   0.1264367   0.0000000), wk =   0.0045977
        k(  391) = (   0.4310343   0.1379309   0.0000000), wk =   0.0045977
        k(  392) = (   0.4252872   0.1494251   0.0000000), wk =   0.0045977
        k(  393) = (   0.4195401   0.1609194   0.0000000), wk =   0.0045977
        k(  394) = (   0.4137929   0.1724136   0.0000000), wk =   0.0045977
        k(  395) = (   0.4080458   0.1839079   0.0000000), wk =   0.0045977
        k(  396) = (   0.4022987   0.1954021   0.0000000), wk =   0.0045977
        k(  397) = (   0.3965515   0.2068963   0.0000000), wk =   0.0045977
        k(  398) = (   0.3908044   0.2183906   0.0000000), wk =   0.0045977
        k(  399) = (   0.3850572   0.2298848   0.0000000), wk =   0.0045977
        k(  400) = (   0.3793101   0.2413791   0.0000000), wk =   0.0045977
        k(  401) = (   0.3735630   0.2528733   0.0000000), wk =   0.0045977
        k(  402) = (   0.3678158   0.2643676   0.0000000), wk =   0.0045977
        k(  403) = (   0.3620687   0.2758618   0.0000000), wk =   0.0045977
        k(  404) = (   0.3563216   0.2873560   0.0000000), wk =   0.0045977
        k(  405) = (   0.3505744   0.2988503   0.0000000), wk =   0.0045977
        k(  406) = (   0.3448273   0.3103445   0.0000000), wk =   0.0045977
        k(  407) = (   0.3390801   0.3218388   0.0000000), wk =   0.0045977
        k(  408) = (   0.3333330   0.3333330   0.0000000), wk =   0.0045977
        k(  409) = (   0.3333330   0.3333330   0.0185185), wk =   0.0045977
        k(  410) = (   0.3333330   0.3333330   0.0370370), wk =   0.0045977
        k(  411) = (   0.3333330   0.3333330   0.0555556), wk =   0.0045977
        k(  412) = (   0.3333330   0.3333330   0.0740741), wk =   0.0045977
        k(  413) = (   0.3333330   0.3333330   0.0925926), wk =   0.0045977
        k(  414) = (   0.3333330   0.3333330   0.1111111), wk =   0.0045977
        k(  415) = (   0.3333330   0.3333330   0.1296296), wk =   0.0045977
        k(  416) = (   0.3333330   0.3333330   0.1481481), wk =   0.0045977
        k(  417) = (   0.3333330   0.3333330   0.1666667), wk =   0.0045977
        k(  418) = (   0.3333330   0.3333330   0.1851852), wk =   0.0045977
        k(  419) = (   0.3333330   0.3333330   0.2037037), wk =   0.0045977
        k(  420) = (   0.3333330   0.3333330   0.2222222), wk =   0.0045977
        k(  421) = (   0.3333330   0.3333330   0.2407407), wk =   0.0045977
        k(  422) = (   0.3333330   0.3333330   0.2592593), wk =   0.0045977
        k(  423) = (   0.3333330   0.3333330   0.2777778), wk =   0.0045977
        k(  424) = (   0.3333330   0.3333330   0.2962963), wk =   0.0045977
        k(  425) = (   0.3333330   0.3333330   0.3148148), wk =   0.0045977
        k(  426) = (   0.3333330   0.3333330   0.3333333), wk =   0.0045977
        k(  427) = (   0.3333330   0.3333330   0.3518519), wk =   0.0045977
        k(  428) = (   0.3333330   0.3333330   0.3703704), wk =   0.0045977
        k(  429) = (   0.3333330   0.3333330   0.3888889), wk =   0.0045977
        k(  430) = (   0.3333330   0.3333330   0.4074074), wk =   0.0045977
        k(  431) = (   0.3333330   0.3333330   0.4259259), wk =   0.0045977
        k(  432) = (   0.3333330   0.3333330   0.4444444), wk =   0.0045977
        k(  433) = (   0.3333330   0.3333330   0.4629630), wk =   0.0045977
        k(  434) = (   0.3333330   0.3333330   0.4814815), wk =   0.0045977
        k(  435) = (   0.3333330   0.3333330   0.5000000), wk =   0.0045977

     Dense  grid:   346889 G-vectors     FFT dimensions: (  80,  80, 128)

     Largest allocated arrays     est. size (Mb)     dimensions
        Kohn-Sham Wavefunctions         8.63 Mb     (  10876,   52)
        Atomic wavefunctions            5.64 Mb     (  10876,   34)
        NL pseudopotentials             1.66 Mb     (  10876,   10)
        Each V/rho on FFT grid          3.12 Mb     ( 204800)
        Each G-vector array             0.66 Mb     (  86727)
        G-vector shells                 0.11 Mb     (  14872)
     Largest temporary arrays     est. size (Mb)     dimensions
        Auxiliary wavefunctions        34.52 Mb     (  10876,  208)
        Each subspace H/S matrix        0.66 Mb     ( 208, 208)
        Each <psi_i|beta_j> matrix      0.01 Mb     (     10,   52)
     writing wfc files to a dedicated directory

     Check: negative/imaginary core charge=   -0.000103    0.000000

     The potential is recalculated from file :
     ./Zn2O2.save/charge-density.dat

 --- in v_hubbard ---
Hubbard energies (dc, U, total)   49.9915  50.0054   0.0139
 -------
     Number of +U iterations with fixed ns =  0
     Starting occupations:
 --- enter write_ns ---
 LDA+U parameters:
U(  1) =   8.0000   J(  1) =   0.9000   B(  1) =   0.1033
atom    1   Tr[ns(na)] =   9.97334
    eigenvalues: 
  0.997  0.997  0.997  0.998  0.998
    eigenvectors:
  0.000  0.000  1.000  0.000  0.000
  0.036  0.282  0.000  0.551  0.131
  0.282  0.036  0.000  0.131  0.551
  0.605  0.077  0.000  0.061  0.257
  0.077  0.605  0.000  0.257  0.061
    occupations:
  0.997  0.000  0.000  0.000  0.000
  0.000  0.998  0.000  0.000  0.001
  0.000  0.000  0.998  0.001  0.000
  0.000  0.000  0.001  0.997  0.000
  0.000  0.001  0.000  0.000  0.997
atom    2   Tr[ns(na)] =   9.97334
    eigenvalues: 
  0.997  0.997  0.997  0.998  0.998
    eigenvectors:
  0.000  0.000  1.000  0.000  0.000
  0.108  0.210  0.000  0.000  0.682
  0.210  0.108  0.000  0.682  0.000
  0.450  0.232  0.000  0.318  0.000
  0.232  0.450  0.000  0.000  0.318
    occupations:
  0.997  0.000  0.000  0.000  0.000
  0.000  0.998  0.000  0.000 -0.001
  0.000  0.000  0.998 -0.001  0.000
  0.000  0.000 -0.001  0.997  0.000
  0.000 -0.001  0.000  0.000  0.997
N of occupied +U levels =  19.9466886
 --- exit write_ns ---
 Atomic wfc used for LDA+U Projector are NOT orthogonalized
     Starting wfc are   34 randomized atomic wfcs

     total cpu time spent up to now is        8.8 secs

     per-process dynamical memory:    76.9 Mb

     Band Structure Calculation
     Davidson diagonalization with overlap

     Computing kpt #:     1
     total cpu time spent up to now is       64.1 secs

     Computing kpt #:     2
     total cpu time spent up to now is      120.6 secs

     Computing kpt #:     3
     total cpu time spent up to now is      176.6 secs

     Computing kpt #:     4
     total cpu time spent up to now is      235.2 secs

     Computing kpt #:     5
     total cpu time spent up to now is      290.8 secs

     Computing kpt #:     6
[...]

  -113.8632-113.8632 -68.5353 -68.5350 -68.5261 -68.5258 -68.5258 -68.5250
    -8.6501  -8.6091  -0.2005   0.2530   0.3446   0.5225   0.5411   0.5838
     0.6818   0.7310   1.3011   1.3590   4.0709   4.4224   4.4384   5.9605
     6.2746   6.3981  15.7698  16.0875  16.2269  16.6048  19.1123  19.3033
    21.2805  21.8380  22.6719  29.1894  29.4255  30.4822  30.9381  32.4353
    34.4370  34.4734  34.7853  35.1713  35.2922  35.9982  37.3075  37.6003
    42.7592  43.6596  44.9051  45.5941

          k = 0.1079 0.1685 0.0000     band energies (ev):

  -113.8632-113.8632 -68.5353 -68.5351 -68.5261 -68.5258 -68.5258 -68.5251
    -8.6442  -8.6131  -0.2021   0.2677   0.3353   0.5258   0.5472   0.5789
     0.6795   0.7303   1.3113   1.3593   4.1026   4.3845   4.4215   6.0038
     6.2517   6.3617  15.8526  16.0879  16.2247  16.5611  19.1254  19.2597
    21.3195  21.9049  22.5294  29.2976  29.5117  30.2949  30.9170  32.7058
    34.3887  34.4810  34.7339  35.0161  35.2623  35.9981  37.3436  37.5568
    42.8403  43.5409  45.1594  45.6323

          k = 0.1061 0.1715 0.0000     band energies (ev):

  -113.8632-113.8632 -68.5352 -68.5351 -68.5260 -68.5258 -68.5258 -68.5251
    -8.6385  -8.6175  -0.2033   0.2813   0.3255   0.5283   0.5530   0.5739
     0.6779   0.7300   1.3215   1.3567   4.1295   4.3588   4.4029   6.0484
     6.2231   6.3346  15.9340  16.0878  16.2033  16.5269  19.1398  19.2235
    21.3544  21.9815  22.3927  29.4035  29.5990  30.1048  30.9047  32.9317
    34.3425  34.5230  34.6869  34.8422  35.2556  35.9982  37.3793  37.5161
    42.9348  43.4151  45.4012  45.6719

          k = 0.1043 0.1746 0.0000     band energies (ev):

  -113.8632-113.8632 -68.5352 -68.5351 -68.5260 -68.5258 -68.5258 -68.5251
    -8.6329  -8.6223  -0.2040   0.2938   0.3153   0.5299   0.5586   0.5689
     0.6769   0.7298   1.3319   1.3510   4.1470   4.3502   4.3829   6.0942
     6.1857   6.3195  16.0138  16.0873  16.1586  16.5073  19.1556  19.1946
    21.3808  22.0665  22.2667  29.5029  29.6863  29.9196  30.8981  33.0802
    34.3703  34.5634  34.6432  34.6674  35.2542  35.9978  37.4135  37.4787
    43.0420  43.2873  45.6025  45.7286

          k = 0.1026 0.1776 0.0000     band energies (ev):

  -113.8632-113.8632 -68.5352 -68.5352 -68.5260 -68.5258 -68.5258 -68.5251
    -8.6274  -8.6274  -0.2042   0.3049   0.3049   0.5305   0.5638   0.5638
     0.6765   0.7298   1.3422   1.3422   4.1525   4.3619   4.3619   6.1411
     6.1411   6.3151  16.0863  16.0919  16.0919  16.5016  19.1729  19.1729
    21.3917  22.1589  22.1589  29.5638  29.7728  29.7728  30.8961  33.1285
    34.4950  34.4950  34.6026  34.6026  35.2542  35.9973  37.4455  37.4456
    43.1610  43.1611  45.6579  45.8945

          k = 0.1026 0.1776 0.0036     band energies (ev):

  -113.8632-113.8632 -68.5352 -68.5352 -68.5260 -68.5258 -68.5258 -68.5251
    -8.6274  -8.6274  -0.2037   0.3038   0.3038   0.5304   0.5643   0.5643
     0.6764   0.7289   1.3424   1.3424   4.1545   4.3601   4.3601   6.1444
     6.1444   6.3132  16.0870  16.0924  16.0924  16.5015  19.1640  19.1640
    21.3954  22.1684  22.1684  29.5324  29.7656  29.7656  30.9138  33.1241
    34.4351  34.4351  34.6743  34.6743  35.2717  36.0056  37.4421  37.4421
    43.1635  43.1635  45.6434  45.8944

          k = 0.1026 0.1776 0.0071     band energies (ev):

  -113.8632-113.8632 -68.5352 -68.5352 -68.5260 -68.5258 -68.5258 -68.5251
    -8.6271  -8.6271  -0.2020   0.3005   0.3005   0.5302   0.5657   0.5657
     0.6761   0.7260   1.3430   1.3430   4.1604   4.3546   4.3546   6.1543
     6.1543   6.3076  16.0893  16.0937  16.0938  16.5011  19.1376  19.1376
    21.4065  22.1965  22.1965  29.4437  29.7440  29.7440  30.9618  33.1110
    34.3522  34.3522  34.7924  34.7924  35.3238  36.0304  37.4320  37.4320
    43.1707  43.1707  45.6001  45.8943

          k = 0.1026 0.1776 0.0107     band energies (ev):

  -113.8632-113.8632 -68.5352 -68.5352 -68.5260 -68.5258 -68.5258 -68.5251
    -8.6267  -8.6267  -0.1992   0.2952   0.2952   0.5299   0.5680   0.5680
     0.6757   0.7214   1.3439   1.3439   4.1703   4.3457   4.3457   6.1705
     6.1705   6.2982  16.0930  16.0960  16.0961  16.5005  19.0949  19.0949
    21.4250  22.2422  22.2422  29.3099  29.7088  29.7088  31.0289  33.0897
    34.2770  34.2771  34.9252  34.9252  35.4095  36.0711  37.4158  37.4158
    43.1825  43.1825  45.5290  45.8939

          k = 0.1026 0.1776 0.0142     band energies (ev):

  -113.8632-113.8632 -68.5352 -68.5352 -68.5260 -68.5258 -68.5258 -68.5251
    -8.6261  -8.6261  -0.1953   0.2880   0.2880   0.5293   0.5710   0.5710
     0.6750   0.7149   1.3452   1.3452   4.1841   4.3337   4.3337   6.1927
     6.1927   6.2850  16.0981  16.0993  16.0993  16.4996  19.0374  19.0374
    21.4509  22.3037  22.3037  29.1432  29.6606  29.6606  31.1043  33.0610
    34.2121  34.2121  35.0687  35.0687  35.5272  36.1270  37.3946  37.3946
    43.1984  43.1984  45.4315  45.8929

          k = 0.1026 0.1776 0.0178     band energies (ev):

  -113.8632-113.8632 -68.5352 -68.5352 -68.5260 -68.5258 -68.5258 -68.5251
    -8.6254  -8.6254  -0.1903   0.2792   0.2792   0.5284   0.5745   0.5745
     0.6742   0.7069   1.3468   1.3468   4.2017   4.3188   4.3188   6.2203
     6.2203   6.2683  16.1035  16.1035  16.1047  16.4985  18.9674  18.9674
    21.4843  22.3790  22.3790  28.9534  29.6006  29.6006  31.1806  33.0257
    34.1573  34.1573  35.2206  35.2206  35.6749  36.1972  37.3701  37.3701
    43.2179  43.2179  45.3099  45.8908

          k = 0.1026 0.1776 0.0214     band energies (ev):

  -113.8632-113.8632 -68.5352 -68.5352 -68.5260 -68.5258 -68.5258 -68.5251
    -8.6246  -8.6246  -0.1842   0.2689   0.2689   0.5271   0.5784   0.5784
     0.6732   0.6975   1.3487   1.3487   4.2229   4.3017   4.3017   6.2480
     6.2528   6.2528  16.1087  16.1087  16.1124  16.4972  18.8867  18.8867
    21.5250  22.4660  22.4661  28.7470  29.5301  29.5301  31.2533  32.9849
    34.1123  34.1123  35.3782  35.3782  35.8498  36.2806  37.3446  37.3446
    43.2403  43.2403  45.1670  45.8869

          k = 0.1026 0.1776 0.0249     band energies (ev):

  -113.8632-113.8632 -68.5352 -68.5352 -68.5260 -68.5258 -68.5258 -68.5251
    -8.6236  -8.6236  -0.1770   0.2575   0.2575   0.5252   0.5826   0.5826
     0.6721   0.6870   1.3508   1.3508   4.2478   4.2826   4.2826   6.2241
     6.2895   6.2895  16.1149  16.1149  16.1214  16.4955  18.7975  18.7975
    21.5732  22.5627  22.5628  28.5287  29.4504  29.4504  31.3204  32.9396
    34.0764  34.0764  35.5380  35.5380  36.0495  36.3760  37.3217  37.3217
    43.2650  43.2650  45.0059  45.8799

          k = 0.1026 0.1776 0.0285     band energies (ev):

  -113.8632-113.8632 -68.5352 -68.5352 -68.5260 -68.5258 -68.5258 -68.5251
    -8.6225  -8.6225  -0.1688   0.2452   0.2452   0.5226   0.5868   0.5868
     0.6707   0.6757   1.3533   1.3533   4.2622   4.2622   4.2761   6.1970
     6.3297   6.3297  16.1222  16.1222  16.1315  16.4936  18.7017  18.7017
    21.6287  22.6672  22.6672  28.3021  29.3630  29.3630  31.3811  32.8908
    34.0488  34.0488  35.6950  35.6950  36.2709  36.4825  37.3062  37.3062
    43.2912  43.2912  44.8297  45.8684

          k = 0.1026 0.1776 0.0321     band energies (ev):

  -113.8632-113.8632 -68.5352 -68.5352 -68.5260 -68.5258 -68.5258 -68.5251
    -8.6213  -8.6213  -0.1594   0.2322   0.2322   0.5188   0.5910   0.5910
     0.6641   0.6692   1.3559   1.3559   4.2407   4.2407   4.3077   6.1666
     6.3729   6.3729  16.1306  16.1306  16.1426  16.4914  18.6011  18.6011
    21.6917  22.7775  22.7775  28.0696  29.2693  29.2693  31.4354  32.8393
    34.0290  34.0290  35.8422  35.8422  36.5114  36.5990  37.3054  37.3054
    43.3181  43.3181  44.6417  45.8502

          k = 0.1026 0.1776 0.0356     band energies (ev):

  -113.8632-113.8632 -68.5352 -68.5352 -68.5260 -68.5258 -68.5258 -68.5252
    -8.6200  -8.6200  -0.1490   0.2188   0.2188   0.5135   0.5951   0.5951
     0.6526   0.6676   1.3586   1.3586   4.2187   4.2187   4.3424   6.1330
     6.4182   6.4182  16.1401  16.1401  16.1545  16.4888  18.4971  18.4971
    21.7620  22.8922  22.8922  27.8332  29.1706  29.1706  31.4839  32.7860
    34.0160  34.0160  35.9703  35.9703  36.7247  36.7680  37.3286  37.3286
    43.3450  43.3450  44.4450  45.8224

          k = 0.1026 0.1776 0.0392     band energies (ev):

  -113.8632-113.8632 -68.5352 -68.5352 -68.5259 -68.5258 -68.5258 -68.5252
    -8.6187  -8.6187  -0.1376   0.2050   0.2050   0.5063   0.5990   0.5990
     0.6418   0.6658   1.3615   1.3615   4.1964   4.1964   4.3801   6.0965
     6.4651   6.4651  16.1508  16.1508  16.1671  16.4860  18.3911  18.3911
    21.8397  23.0098  23.0098  27.5942  29.0682  29.0682  31.5272  32.7316
    34.0093  34.0093  36.0692  36.0692  36.8586  37.0382  37.3859  37.3859
    43.3713  43.3713  44.2423  45.7812

          k = 0.1026 0.1776 0.0427     band energies (ev):

  -113.8632-113.8632 -68.5352 -68.5352 -68.5259 -68.5257 -68.5257 -68.5252
    -8.6173  -8.6173  -0.1251   0.1912   0.1912   0.4967   0.6027   0.6027
     0.6322   0.6638   1.3645   1.3645   4.1743   4.1743   4.4206   6.0571
     6.5128   6.5128  16.1627  16.1627  16.1804  16.4828  18.2844  18.2844
    21.9247  23.1291  23.1291  27.3541  28.9634  28.9634  31.5660  32.6766
    34.0083  34.0083  36.1318  36.1318  37.0000  37.3192  37.4847  37.4847
    43.3962  43.3962  44.0365  45.7221

          k = 0.1026 0.1776 0.0463     band energies (ev):

  -113.8632-113.8632 -68.5352 -68.5352 -68.5259 -68.5257 -68.5257 -68.5252
    -8.6159  -8.6159  -0.1116   0.1774   0.1774   0.4845   0.6062   0.6062
     0.6243   0.6617   1.3675   1.3675   4.1527   4.1527   4.4637   6.0151
     6.5608   6.5608  16.1759  16.1759  16.1941  16.4792  18.1779  18.1779
    22.0171  23.2488  23.2488  27.1137  28.8574  28.8574  31.6012  32.6218
    34.0122  34.0122  36.1578  36.1579  37.1481  37.6083  37.6252  37.6253
    43.4191  43.4191  43.8303  45.6401

          k = 0.1026 0.1776 0.0499     band energies (ev):

  -113.8632-113.8632 -68.5352 -68.5352 -68.5259 -68.5257 -68.5257 -68.5252
    -8.6144  -8.6144  -0.0971   0.1639   0.1639   0.4697   0.6093   0.6093
     0.6182   0.6595   1.3704   1.3704   4.1317   4.1317   4.5093   5.9706
     6.6084   6.6084  16.1904  16.1904  16.2082  16.4752  18.0726  18.0726
    22.1167  23.3678  23.3678  26.8739  28.7512  28.7512  31.6334  32.5673
    34.0206  34.0206  36.1532  36.1532  37.3024  37.8018  37.8018  37.9026
    43.4396  43.4396  43.6265  45.5312

          k = 0.1026 0.1776 0.0534     band energies (ev):

  -113.8632-113.8632 -68.5352 -68.5352 -68.5259 -68.5257 -68.5257 -68.5253
    -8.6130  -8.6130  -0.0817   0.1507   0.1507   0.4525   0.6122   0.6122
     0.6139   0.6572   1.3734   1.3734   4.1116   4.1116   4.5572   5.9237
     6.6551   6.6551  16.2062  16.2062  16.2226  16.4709  17.9693  17.9694
    22.2236  23.4851  23.4851  26.6354  28.6459  28.6459  31.6633  32.5137
    34.0329  34.0329  36.1260  36.1260  37.4623  38.0061  38.0062  38.1990
    43.4284  43.4568  43.4568  45.3930

          k = 0.1026 0.1776 0.0570     band energies (ev):

  -113.8632-113.8632 -68.5352 -68.5352 -68.5258 -68.5257 -68.5257 -68.5253
    -8.6116  -8.6116  -0.0653   0.1381   0.1381   0.4331   0.6111   0.6148
     0.6148   0.6548   1.3762   1.3762   4.0926   4.0926   4.6072   5.8747
     6.7003   6.7003  16.2233  16.2233  16.2370  16.4661  17.8690  17.8690
    22.3375  23.5995  23.5995  26.3988  28.5426  28.5426  31.6914  32.4612
    34.0486  34.0486  36.0839  36.0839  37.6271  38.2308  38.2308  38.4933
    43.2396  43.4702  43.4702  45.2263

          k = 0.1026 0.1776 0.0605     band energies (ev):

  -113.8632-113.8632 -68.5352 -68.5352 -68.5258 -68.5257 -68.5257 -68.5253
    -8.6103  -8.6103  -0.0480   0.1261   0.1261   0.4120   0.6095   0.6172
     0.6172   0.6523   1.3790   1.3790   4.0749   4.0749   4.6590   5.8236
     6.7436   6.7436  16.2416  16.2416  16.2515  16.4610  17.7723  17.7723
    22.4586  23.7101  23.7101  26.1646  28.4424  28.4424  31.7182  32.4100
    34.0670  34.0670  36.0324  36.0324  37.7962  38.4698  38.4698  38.7806
    43.0652  43.4786  43.4786  45.0350

          k = 0.1026 0.1776 0.0641     band energies (ev):

  -113.8632-113.8632 -68.5352 -68.5352 -68.5258 -68.5257 -68.5257 -68.5253
    -8.6090  -8.6090  -0.0298   0.1149   0.1149   0.3897   0.6089   0.6192
     0.6192   0.6496   1.3815   1.3815   4.0585   4.0585   4.7126   5.7708
     6.7843   6.7843  16.2610  16.2611  16.2660  16.4553  17.6799  17.6800
    22.5867  23.8156  23.8156  25.9333  28.3464  28.3464  31.7442  32.3604
    34.0875  34.0875  35.9760  35.9760  37.9691  38.7186  38.7186  39.0544
    42.9117  43.4804  43.4804  44.8257

          k = 0.1026 0.1776 0.0677     band energies (ev):

  -113.8632-113.8632 -68.5352 -68.5352 -68.5258 -68.5257 -68.5257 -68.5254
    -8.6078  -8.6078  -0.0108   0.1045   0.1045   0.3662   0.6091   0.6210
     0.6210   0.6469   1.3839   1.3839   4.0436   4.0436   4.7677   5.7163
     6.8221   6.8221  16.2803  16.2814  16.2814  16.4492  17.5928  17.5928
    22.7217  23.9150  23.9150  25.7053  28.2556  28.2556  31.7698  32.3124
    34.1095  34.1095  35.9177  35.9177  38.1451  38.9734  38.9734  39.3055
    42.7878  43.4728  43.4728  44.6072

          k = 0.1026 0.1776 0.0712     band energies (ev):

  -113.8632-113.8632 -68.5352 -68.5352 -68.5258 -68.5257 -68.5257 -68.5254
    -8.6067  -8.6067   0.0091   0.0952   0.0952   0.3421   0.6099   0.6225
     0.6225   0.6442   1.3861   1.3861   4.0303   4.0303   4.8242   5.6604
     6.8565   6.8565  16.2943  16.3024  16.3024  16.4426  17.5116  17.5116
    22.8634  24.0071  24.0071  25.4809  28.1713  28.1713  31.7954  32.2662
    34.1323  34.1323  35.8601  35.8601  38.3234  39.2305  39.2305  39.5227
    42.7048  43.4507  43.4507  44.3911

          k = 0.1026 0.1776 0.0748     band energies (ev):

  -113.8632-113.8632 -68.5352 -68.5352 -68.5257 -68.5257 -68.5257 -68.5254
    -8.6057  -8.6057   0.0297   0.0869   0.0869   0.3174   0.6111   0.6238
     0.6238   0.6414   1.3880   1.3880   4.0187   4.0187   4.8819   5.6032
     6.8871   6.8871  16.3080  16.3236  16.3236  16.4354  17.4373  17.4373
    23.0119  24.0906  24.0906  25.2604  28.0947  28.0947  31.8212  32.2218
    34.1549  34.1549  35.8053  35.8053  38.5033  39.4859  39.4859  39.6926
    42.6758  43.4050  43.4050  44.1928

          k = 0.1026 0.1776 0.0783     band energies (ev):

  -113.8632-113.8632 -68.5352 -68.5352 -68.5257 -68.5257 -68.5257 -68.5254
    -8.6048  -8.6048   0.0511   0.0798   0.0798   0.2924   0.6128   0.6249
     0.6249   0.6386   1.3897   1.3897   4.0087   4.0087   4.9406   5.5449
     6.9136   6.9136  16.3214  16.3443  16.3443  16.4278  17.3709  17.3709
    23.1669  24.1642  24.1642  25.0442  28.0270  28.0270  31.8475  32.1792
    34.1766  34.1766  35.7552  35.7552  38.6837  39.7348  39.7348  39.8033
    42.7125  43.3238  43.3238  44.0316

          k = 0.1026 0.1776 0.0819     band energies (ev):

  -113.8632-113.8632 -68.5352 -68.5352 -68.5257 -68.5257 -68.5257 -68.5255
    -8.6041  -8.6041   0.0732   0.0738   0.0738   0.2672   0.6147   0.6258
     0.6258   0.6357   1.3911   1.3911   4.0005   4.0005   5.0001   5.4857
     6.9358   6.9358  16.3344  16.3638  16.3638  16.4196  17.3136  17.3136
    23.3284  24.2266  24.2267  24.8325  27.9694  27.9694  31.8745  32.1386
    34.1963  34.1963  35.7114  35.7114  38.8632  39.8491  39.9702  39.9702
    42.8204  43.2026  43.2026  43.9204

          k = 0.1026 0.1776 0.0855     band energies (ev):

  -113.8632-113.8632 -68.5352 -68.5352 -68.5257 -68.5257 -68.5256 -68.5255
    -8.6036  -8.6036   0.0691   0.0691   0.0959   0.2420   0.6169   0.6265
     0.6265   0.6329   1.3922   1.3922   3.9941   3.9941   5.0603   5.4257
     6.9532   6.9532  16.3469  16.3808  16.3808  16.4109  17.2668  17.2668
    23.4962  24.2767  24.2767  24.6255  27.9232  27.9232  31.9025  32.0998
    34.2130  34.2130  35.6755  35.6755  39.0402  39.8334  40.1824  40.1824
    42.9958  43.0575  43.0575  43.8545

          k = 0.1026 0.1776 0.0890     band energies (ev):

  -113.8632-113.8632 -68.5352 -68.5352 -68.5257 -68.5257 -68.5256 -68.5255
    -8.6031  -8.6031   0.0658   0.0658   0.1192   0.2169   0.6193   0.6269
     0.6269   0.6300   1.3930   1.3930   3.9895   3.9895   5.1210   5.3652
     6.9659   6.9659  16.3589  16.3943  16.3943  16.4016  17.2319  17.2319
    23.6701  24.3134  24.3134  24.4236  27.8893  27.8893  31.9317  32.0629
    34.2258  34.2258  35.6488  35.6488  39.2124  39.7665  40.3568  40.3568
    42.9190  42.9190  43.2280  43.8187

          k = 0.1026 0.1776 0.0926     band energies (ev):

  -113.8632-113.8632 -68.5352 -68.5352 -68.5257 -68.5257 -68.5256 -68.5255
    -8.6029  -8.6029   0.0637   0.0637   0.1430   0.1919   0.6218   0.6272
     0.6272   0.6272   1.3934   1.3934   3.9868   3.9868   5.1820   5.3043
     6.9735   6.9735  16.3704  16.3917  16.4031  16.4031  17.2102  17.2102
    23.8499  24.2269  24.3357  24.3357  27.8686  27.8686  31.9622  32.0277
    34.2338  34.2338  35.6323  35.6323  39.3765  39.6611  40.4745  40.4745
    42.8185  42.8185  43.5042  43.8013

          k = 0.1026 0.1776 0.0962     band energies (ev):

  -113.8632-113.8632 -68.5352 -68.5352 -68.5257 -68.5257 -68.5256 -68.5256
    -8.6028  -8.6028   0.0631   0.0631   0.1673   0.1673   0.6245   0.6245
     0.6273   0.6273   1.3936   1.3936   3.9859   3.9859   5.2432   5.2432
     6.9761   6.9761  16.3813  16.3813  16.4061  16.4061  17.2029  17.2029
    24.0356  24.0356  24.3433  24.3433  27.8616  27.8616  31.9941  31.9941
    34.2365  34.2365  35.6267  35.6267  39.5282  39.5282  40.5165  40.5165
    42.7816  42.7816  43.7961  43.7961

     Writing output data file Zn2O2.save
 
     init_run     :      3.76s CPU      6.35s WALL (       1 calls)
     electrons    :    708.23s CPU    720.96s WALL (       1 calls)

     Called by init_run:
     wfcinit      :      0.80s CPU      1.37s WALL (       1 calls)
     potinit      :      0.45s CPU      0.56s WALL (       1 calls)

     Called by electrons:
     c_bands      :    707.87s CPU    720.59s WALL (       1 calls)
     v_of_rho     :      0.10s CPU      0.10s WALL (       1 calls)
     v_h          :      0.05s CPU      0.05s WALL (       1 calls)
     v_xc         :      0.06s CPU      0.05s WALL (       1 calls)

     Called by c_bands:
     init_us_2    :      0.11s CPU      0.14s WALL (      26 calls)
     cegterg      :    524.56s CPU    528.31s WALL (      23 calls)

     Called by sum_band:

     Called by *egterg:
     h_psi        :    463.13s CPU    464.60s WALL (     325 calls)
     g_psi        :      2.41s CPU      2.46s WALL (     289 calls)
     cdiaghg      :      8.54s CPU      8.34s WALL (     302 calls)
     cegterg:over :     34.98s CPU     34.64s WALL (     289 calls)
     cegterg:upda :     26.81s CPU     27.28s WALL (     289 calls)
     cegterg:last :     14.54s CPU     14.70s WALL (      62 calls)

     Called by h_psi:
     h_psi:vloc   :    443.57s CPU    444.77s WALL (     325 calls)
     h_psi:vnl    :      4.36s CPU      4.45s WALL (     325 calls)
     add_vuspsi   :      2.16s CPU      2.35s WALL (     325 calls)
     vhpsi        :     12.72s CPU     12.77s WALL (     325 calls)

     General routines
     calbec       :      8.21s CPU      7.86s WALL (     663 calls)
     fft          :      0.14s CPU      0.15s WALL (       4 calls)
     fftw         :    395.24s CPU    395.55s WALL (   19918 calls)
     davcio       :      0.00s CPU      1.14s WALL (      52 calls)
 
     Parallel routines
     fft_scatter  :    105.99s CPU    101.66s WALL (   19922 calls)
     Hubbard U routines
     vhpsi        :     12.72s CPU     12.77s WALL (     325 calls)
 
     PWSCF        : 11m55.12s CPU    15m 9.51s WALL

 
   This run was terminated on:  17:42:11  26Jun2013            

=------------------------------------------------------------------------------=
   JOB DONE.
=------------------------------------------------------------------------------=
Application 2753541 resources: utime ~129240s, stime ~763s, Rss ~137272, inblocks ~21139309, outblocks ~71778435
