
     Program PWSCF v.6.4.1 starts on 12Apr2021 at 13:50:47 

     This program is part of the open-source Quantum ESPRESSO suite
     for quantum simulation of materials; please cite
         "P. Giannozzi et al., J. Phys.:Condens. Matter 21 395502 (2009);
         "P. Giannozzi et al., J. Phys.:Condens. Matter 29 465901 (2017);
          URL http://www.quantum-espresso.org", 
     in publications or presentations arising from this work. More details at
     http://www.quantum-espresso.org/quote

     Parallel version (MPI & OpenMP), running on      32 processor cores
     Number of MPI processes:                32
     Threads/MPI process:                     1

     MPI processes distributed on     1 nodes
     R & G space division:  proc/nbgrp/npool/nimage =      32
     Waiting for input...
     Reading input from standard input

     Current dimensions of program PWSCF are:
     Max number of different atomic species (ntypx) = 10
     Max number of k-points (npk) =  40000
     Max angular momentum in pseudopotentials (lmaxx) =  3

     Atomic positions and unit cell read from directory:
     ./silicon.save/
 
     Message from routine read_upf::
     Pseudo file Si_FR.UPF has been fixed on the fly.
To avoid this message in the future, permanently fix 
 your pseudo files following these instructions: 
https://gitlab.com/QEF/q-e/blob/master/upftools/how_to_fix_upf.md

     Subspace diagonalization in iterative solution of the eigenvalue problem:
     one sub-group per band group will be used
     scalapack distributed-memory algorithm (size of sub-group:  4*  4 procs)

     Message from routine setup:
     DEPRECATED: symmetry with ibrav=0, use correct ibrav instead
 
     Parallelization info
     --------------------
     sticks:   dense  smooth     PW     G-vecs:    dense   smooth      PW
     Min          11      11      3                  142      142      27
     Max          12      12      4                  145      145      32
     Sum         361     361    127                 4573     4573     965
 


     bravais-lattice index     =            0
     lattice parameter (alat)  =       7.2558  a.u.
     unit-cell volume          =     270.1072 (a.u.)^3
     number of atoms/cell      =            2
     number of atomic types    =            1
     number of electrons       =         8.00
     number of Kohn-Sham states=           12
     kinetic-energy cutoff     =      25.0000  Ry
     charge density cutoff     =     100.0000  Ry
     Exchange-correlation      = PZ ( 1  1  0  0 0 0)
     Non magnetic calculation with spin-orbit


     celldm(1)=   7.255773  celldm(2)=   0.000000  celldm(3)=   0.000000
     celldm(4)=   0.000000  celldm(5)=   0.000000  celldm(6)=   0.000000

     crystal axes: (cart. coord. in units of alat)
               a(1) = (   0.707107   0.707107   0.000000 )  
               a(2) = (   0.000000   0.707107   0.707107 )  
               a(3) = (   0.707107   0.000000   0.707107 )  

     reciprocal axes: (cart. coord. in units 2 pi/alat)
               b(1) = (  0.707107  0.707107 -0.707107 )  
               b(2) = ( -0.707107  0.707107  0.707107 )  
               b(3) = (  0.707107 -0.707107  0.707107 )  


     PseudoPot. # 1 for Si read from file:
     ../../../pseudo/ld1/Si_FR.UPF
     MD5 check sum: 0c20cc1f09e72bc250a06fb316886f38
     Pseudo is Norm-conserving, Zval =  4.0
     Generated using "atomic" code by A. Dal Corso v.6.0 svn rev. 13079
     Using radial grid of 1141 points,  3 beta functions with: 
                l(1) =   0
                l(2) =   1
                l(3) =   1

     atomic species   valence    mass     pseudopotential
        Si             4.00     1.00000     Si( 1.00)

     48 Sym. Ops., with inversion, found (36 have fractional translation)



   Cartesian axes

     site n.     atom                  positions (alat units)
         1           Si  tau(   1) = (  -0.1767767  -0.1767767  -0.1767767  )
         2           Si  tau(   2) = (   0.1767767   0.1767767   0.1767767  )

     number of k points=    56
                       cart. coord. in units 2pi/alat
        k(    1) = (   0.0007071  -0.0007071   0.0007071), wk =   0.0046296
        k(    2) = (   0.1185582  -0.1185582   0.1185582), wk =   0.0046296
        k(    3) = (   0.2364094  -0.2364094   0.2364094), wk =   0.0046296
        k(    4) = (   0.3542605  -0.3542605   0.3542605), wk =   0.0046296
        k(    5) = (   0.4721116  -0.4721116   0.4721116), wk =   0.0046296
        k(    6) = (   0.5899628  -0.5899628   0.5899628), wk =   0.0046296
        k(    7) = (   0.0007071  -0.0007071   0.2364094), wk =   0.0138889
        k(    8) = (   0.1185582  -0.1185582   0.3542605), wk =   0.0138889
        k(    9) = (   0.2364094  -0.2364094   0.4721116), wk =   0.0138889
        k(   10) = (   0.3542605  -0.3542605   0.5899628), wk =   0.0138889
        k(   11) = (   0.4721116  -0.4721116   0.7078139), wk =   0.0138889
        k(   12) = (   0.0007071  -0.0007071   0.4721116), wk =   0.0138889
        k(   13) = (   0.1185582  -0.1185582   0.5899628), wk =   0.0138889
        k(   14) = (   0.2364094  -0.2364094   0.7078139), wk =   0.0138889
        k(   15) = (   0.0007071  -0.0007071   0.7078139), wk =   0.0138889
        k(   16) = (   0.1185582   0.1171440   0.1185582), wk =   0.0138889
        k(   17) = (   0.0007071   0.2349952   0.2364094), wk =   0.0277778
        k(   18) = (   0.1185582   0.1171440   0.3542605), wk =   0.0277778
        k(   19) = (   0.2364094  -0.0007071   0.4721116), wk =   0.0277778
        k(   20) = (   0.3542605  -0.1185582   0.5899628), wk =   0.0277778
        k(   21) = (   0.1185582   0.1171440   0.5899628), wk =   0.0277778
        k(   22) = (   0.2364094  -0.0007071   0.7078139), wk =   0.0277778
        k(   23) = (   0.2364094  -0.0007071   0.9435161), wk =   0.0277778
        k(   24) = (   0.3542605   0.1171440  -0.1171440), wk =   0.0138889
        k(   25) = (   0.8256650  -0.3542605   0.3542605), wk =   0.0138889
        k(   26) = (   0.2364094   0.2349952   0.2364094), wk =   0.0138889
        k(   27) = (   0.1185582   0.3528463   0.3542605), wk =   0.0277778
        k(   28) = (   0.2364094   0.2349952   0.4721116), wk =   0.0277778
        k(   29) = (   0.3542605   0.1171440   0.5899628), wk =   0.0277778
        k(   30) = (   0.0007071   0.4706974   0.4721116), wk =   0.0277778
        k(   31) = (   0.4721116   0.2349952  -0.2349952), wk =   0.0138889
        k(   32) = (   0.5899628   0.1171440  -0.1171440), wk =   0.0138889
        k(   33) = (   0.8256650  -0.1185582   0.1185582), wk =   0.0138889
        k(   34) = (   0.9435161  -0.2364094   0.2364094), wk =   0.0138889
        k(   35) = (   0.3542605   0.3528463   0.3542605), wk =   0.0138889
        k(   36) = (   0.1185582   0.5885485   0.3542605), wk =   0.0277778
        k(   37) = (   0.2364094   0.4706974   0.4721116), wk =   0.0277778
        k(   38) = (   0.3542605   0.3528463   0.5899628), wk =   0.0277778
        k(   39) = (   0.0007071   0.7063997   0.4721116), wk =   0.0277778
        k(   40) = (   0.1185582   0.5885485   0.5899628), wk =   0.0277778
        k(   41) = (   0.5899628   0.3528463  -0.3528463), wk =   0.0138889
        k(   42) = (   0.7078139   0.2349952  -0.2349952), wk =   0.0138889
        k(   43) = (   0.8256650   0.1171440  -0.1171440), wk =   0.0138889
        k(   44) = (   0.9435161  -0.0007071   0.0007071), wk =   0.0138889
        k(   45) = (   1.0613673  -0.1185582   0.1185582), wk =   0.0138889
        k(   46) = (   0.3542605   0.5885485  -0.1171440), wk =   0.0277778
        k(   47) = (   0.4721116   0.4706974   0.4721116), wk =   0.0138889
        k(   48) = (   0.2364094   0.7063997   0.4721116), wk =   0.0277778
        k(   49) = (   0.3542605   0.5885485   0.5899628), wk =   0.0277778
        k(   50) = (   0.7078139   0.4706974  -0.4706974), wk =   0.0138889
        k(   51) = (   0.8256650   0.3528463  -0.3528463), wk =   0.0138889
        k(   52) = (   0.9435161   0.2349952  -0.2349952), wk =   0.0138889
        k(   53) = (   1.0613673   0.1171440  -0.1171440), wk =   0.0138889
        k(   54) = (   1.1792184  -0.0007071   0.0007071), wk =   0.0138889
        k(   55) = (   0.4721116   0.7063997  -0.2349952), wk =   0.0277778
        k(   56) = (   0.5899628   0.5885485   0.5899628), wk =   0.0138889

     Dense  grid:     4573 G-vectors     FFT dimensions: (  24,  24,  24)

     Estimated max dynamical RAM per process >       0.71 MB

     Estimated total dynamical RAM >      22.69 MB

     The potential is recalculated from file :
     ./silicon.save/charge-density

     Starting wfcs are   16 randomized atomic wfcs

     Band Structure Calculation
     Davidson diagonalization with overlap

     ethr =  1.25E-12,  avg # of iterations = 31.3

     total cpu time spent up to now is        6.3 secs

     End of band structure calculation

          k = 0.0007-0.0007 0.0007 (   537 PWs)   bands (ev):

    -5.9394  -5.9394   5.9764   5.9764   6.0264   6.0264   6.0265   6.0265
     8.5433   8.5433   8.5800   8.5800

          k = 0.1186-0.1186 0.1186 (   564 PWs)   bands (ev):

    -5.5733  -5.5733   3.6051   3.6051   5.5415   5.5415   5.5741   5.5741
     8.2840   8.2840   9.2027   9.2027

          k = 0.2364-0.2364 0.2364 (   571 PWs)   bands (ev):

    -4.5523  -4.5523   0.6570   0.6570   4.9954   4.9954   5.0282   5.0282
     7.6812   7.6812   9.4976   9.4976

          k = 0.3543-0.3543 0.3543 (   568 PWs)   bands (ev):

    -3.5982  -3.5982  -0.9676  -0.9676   4.8003   4.8003   4.8334   4.8334
     7.4576   7.4576   9.3354   9.3354

          k = 0.4721-0.4721 0.4721 (   571 PWs)   bands (ev):

    -4.5673  -4.5673   0.6882   0.6882   5.0000   5.0000   5.0329   5.0329
     7.6865   7.6865   9.4997   9.4997

          k = 0.5900-0.5900 0.5900 (   564 PWs)   bands (ev):

    -5.5819  -5.5819   3.6428   3.6428   5.5492   5.5492   5.5819   5.5819
     8.2922   8.2922   9.1926   9.1926

          k = 0.0007-0.0007 0.2364 (   564 PWs)   bands (ev):

    -5.4518  -5.4518   3.9560   3.9560   4.8090   4.8090   4.8232   4.8232
     7.6711   7.6711  10.2053  10.2053

          k = 0.1186-0.1186 0.3543 (   566 PWs)   bands (ev):

    -4.6312  -4.6312   1.5597   1.5597   4.0063   4.0063   4.2673   4.2673
     7.9277   7.9277  10.0159  10.0159

          k = 0.2364-0.2364 0.4721 (   574 PWs)   bands (ev):

    -3.4356  -3.4356  -0.6050  -0.6050   3.2230   3.2230   4.2409   4.2409
     7.9961   7.9961  10.0549  10.0549

          k = 0.3543-0.3543 0.5900 (   575 PWs)   bands (ev):

    -3.8361  -3.8361   0.0166   0.0166   2.9554   2.9554   4.7223   4.7223
     8.4079   8.4079  10.0637  10.0637

          k = 0.4721-0.4721 0.7078 (   564 PWs)   bands (ev):

    -4.9942  -4.9942   2.3052   2.3052   3.6000   3.6000   5.4525   5.4525
     8.9977   8.9977   9.5520   9.5520

          k = 0.0007-0.0007 0.4721 (   576 PWs)   bands (ev):

    -4.0277  -4.0277   0.9990   0.9990   3.5923   3.5923   3.5976   3.5976
     6.6756   6.6756   7.9339   7.9339

          k = 0.1186-0.1186 0.5900 (   572 PWs)   bands (ev):

    -2.8594  -2.8594  -0.5502  -0.5502   2.3598   2.3598   3.4626   3.4626
     7.0131   7.0131   8.6853   8.6853

          k = 0.2364-0.2364 0.7078 (   572 PWs)   bands (ev):

    -2.6735  -2.6735  -0.7428  -0.7428   1.5805   1.5805   3.9083   3.9083
     7.5218   7.5218  11.7651  11.7651

          k = 0.0007-0.0007 0.7078 (   588 PWs)   bands (ev):

    -1.8004  -1.8004  -1.7849  -1.7849   3.1632   3.1632   3.1633   3.1633
     6.6524   6.6524   6.6560   6.6560

          k = 0.1186 0.1171 0.1186 (   564 PWs)   bands (ev):

    -5.5762  -5.5762   3.6176   3.6176   5.5434   5.5434   5.5772   5.5772
     8.2869   8.2869   9.1984   9.1984

          k = 0.0007 0.2350 0.2364 (   564 PWs)   bands (ev):

    -4.9886  -4.9886   2.2934   2.2934   3.5908   3.5908   5.4486   5.4486
     8.9967   8.9967   9.5573   9.5573

          k = 0.1186 0.1171 0.3543 (   566 PWs)   bands (ev):

    -4.6338  -4.6338   1.5694   1.5694   4.0052   4.0052   4.2658   4.2658
     7.9227   7.9227  10.0069  10.0069

          k = 0.2364-0.0007 0.4721 (   566 PWs)   bands (ev):

    -3.6385  -3.6385   0.3677   0.3677   2.4237   2.4237   3.7092   3.7092
     8.8229   8.8229   9.6711   9.6711

          k = 0.3543-0.1186 0.5900 (   564 PWs)   bands (ev):

    -2.6567  -2.6567  -0.8240  -0.8240   1.9877   1.9877   3.2446   3.2446
     9.3135   9.3135   9.5119   9.5119

          k = 0.1186 0.1171 0.5900 (   572 PWs)   bands (ev):

    -2.8607  -2.8607  -0.5486  -0.5486   2.3657   2.3657   3.4603   3.4603
     7.0102   7.0102   8.6682   8.6682

          k = 0.2364-0.0007 0.7078 (   568 PWs)   bands (ev):

    -1.6763  -1.6763  -1.6617  -1.6617   2.3450   2.3450   2.3608   2.3608
     8.7046   8.7046   8.7211   8.7211

          k = 0.2364-0.0007 0.9435 (   566 PWs)   bands (ev):

    -3.6489  -3.6489   0.3792   0.3792   2.4278   2.4278   3.7212   3.7212
     8.8262   8.8262   9.6802   9.6802

          k = 0.3543 0.1171-0.1171 (   566 PWs)   bands (ev):

    -4.6364  -4.6364   1.5791   1.5791   4.0044   4.0044   4.2640   4.2640
     7.9176   7.9176   9.9976   9.9976

          k = 0.8257-0.3543 0.3543 (   575 PWs)   bands (ev):

    -3.8347  -3.8347   0.0073   0.0073   2.9688   2.9688   4.7229   4.7229
     8.4070   8.4070  10.0501  10.0501

          k = 0.2364 0.2350 0.2364 (   572 PWs)   bands (ev):

    -4.5573  -4.5573   0.6674   0.6674   4.9966   4.9966   5.0300   5.0300
     7.6833   7.6833   9.4979   9.4979

          k = 0.1186 0.3528 0.3543 (   575 PWs)   bands (ev):

    -3.8278  -3.8278  -0.0004  -0.0004   2.9617   2.9617   4.7185   4.7185
     8.4038   8.4038  10.0550  10.0550

          k = 0.2364 0.2350 0.4721 (   574 PWs)   bands (ev):

    -3.4373  -3.4373  -0.5993  -0.5993   3.2190   3.2190   4.2375   4.2375
     7.9930   7.9930  10.0636  10.0636

          k = 0.3543 0.1171 0.5900 (   564 PWs)   bands (ev):

    -2.6512  -2.6512  -0.8260  -0.8260   1.9835   1.9835   3.2372   3.2372
     9.3168   9.3168   9.5187   9.5187

          k = 0.0007 0.4707 0.4721 (   572 PWs)   bands (ev):

    -2.6669  -2.6669  -0.7491  -0.7491   1.5797   1.5797   3.9040   3.9040
     7.5170   7.5170  11.7472  11.7472

          k = 0.4721 0.2350-0.2350 (   574 PWs)   bands (ev):

    -3.4390  -3.4390  -0.5936  -0.5936   3.2150   3.2150   4.2341   4.2341
     7.9897   7.9897  10.0727  10.0727

          k = 0.5900 0.1171-0.1171 (   572 PWs)   bands (ev):

    -2.8620  -2.8620  -0.5470  -0.5470   2.3716   2.3716   3.4581   3.4581
     7.0071   7.0071   8.6512   8.6512

          k = 0.8257-0.1186 0.1186 (   572 PWs)   bands (ev):

    -2.8719  -2.8719  -0.5365  -0.5365   2.3650   2.3650   3.4651   3.4651
     7.0163   7.0163   8.6895   8.6895

          k = 0.9435-0.2364 0.2364 (   574 PWs)   bands (ev):

    -3.4430  -3.4430  -0.6008  -0.6008   3.2379   3.2379   4.2447   4.2447
     8.0005   8.0005  10.0397  10.0397

          k = 0.3543 0.3528 0.3543 (   568 PWs)   bands (ev):

    -3.5981  -3.5981  -0.9677  -0.9677   4.8003   4.8003   4.8334   4.8334
     7.4577   7.4577   9.3354   9.3354

          k = 0.1186 0.5885 0.3543 (   564 PWs)   bands (ev):

    -2.6621  -2.6621  -0.8221  -0.8221   1.9920   1.9920   3.2521   3.2521
     9.3092   9.3092   9.5062   9.5062

          k = 0.2364 0.4707 0.4721 (   574 PWs)   bands (ev):

    -3.4448  -3.4448  -0.5950  -0.5950   3.2339   3.2339   4.2413   4.2413
     7.9975   7.9975  10.0483  10.0483

          k = 0.3543 0.3528 0.5900 (   575 PWs)   bands (ev):

    -3.8293  -3.8293   0.0088   0.0088   2.9483   2.9483   4.7178   4.7178
     8.4046   8.4046  10.0686  10.0686

          k = 0.0007 0.7064 0.4721 (   568 PWs)   bands (ev):

    -1.6773  -1.6773  -1.6627  -1.6627   2.3498   2.3498   2.3656   2.3656
     8.6848   8.6848   8.7013   8.7013

          k = 0.1186 0.5885 0.5900 (   572 PWs)   bands (ev):

    -2.8732  -2.8732  -0.5349  -0.5349   2.3709   2.3709   3.4628   3.4628
     7.0133   7.0133   8.6724   8.6724

          k = 0.5900 0.3528-0.3528 (   575 PWs)   bands (ev):

    -3.8225  -3.8225   0.0010   0.0010   2.9412   2.9412   4.7134   4.7134
     8.4012   8.4012  10.0752  10.0752

          k = 0.7078 0.2350-0.2350 (   572 PWs)   bands (ev):

    -2.6603  -2.6603  -0.7553  -0.7553   1.5790   1.5790   3.8999   3.8999
     7.5121   7.5121  11.7292  11.7292

          k = 0.8257 0.1171-0.1171 (   572 PWs)   bands (ev):

    -2.8745  -2.8745  -0.5333  -0.5333   2.3767   2.3767   3.4606   3.4606
     7.0102   7.0102   8.6554   8.6554

          k = 0.9435-0.0007 0.0007 (   576 PWs)   bands (ev):

    -4.0389  -4.0389   1.0167   1.0167   3.5975   3.5975   3.6028   3.6028
     6.6791   6.6791   7.9458   7.9458

          k = 1.0614-0.1186 0.1186 (   566 PWs)   bands (ev):

    -4.6396  -4.6396   1.5716   1.5716   4.0195   4.0195   4.2743   4.2743
     7.9346   7.9346  10.0201  10.0201

          k = 0.3543 0.5885-0.1171 (   564 PWs)   bands (ev):

    -2.6567  -2.6567  -0.8240  -0.8240   1.9877   1.9877   3.2447   3.2447
     9.3119   9.3119   9.5136   9.5136

          k = 0.4721 0.4707 0.4721 (   573 PWs)   bands (ev):

    -4.5623  -4.5623   0.6779   0.6779   4.9982   4.9982   5.0315   5.0315
     7.6853   7.6853   9.4986   9.4986

          k = 0.2364 0.7064 0.4721 (   566 PWs)   bands (ev):

    -3.6534  -3.6534   0.3858   0.3858   2.4362   2.4362   3.7188   3.7188
     8.8062   8.8062   9.6643   9.6643

          k = 0.3543 0.5885 0.5900 (   566 PWs)   bands (ev):

    -4.6421  -4.6421   1.5813   1.5813   4.0183   4.0183   4.2728   4.2728
     7.9296   7.9296  10.0116  10.0116

          k = 0.7078 0.4707-0.4707 (   564 PWs)   bands (ev):

    -4.9831  -4.9831   2.2816   2.2816   3.5815   3.5815   5.4448   5.4448
     8.9956   8.9956   9.5638   9.5638

          k = 0.8257 0.3528-0.3528 (   575 PWs)   bands (ev):

    -3.8210  -3.8210  -0.0082  -0.0082   2.9546   2.9546   4.7141   4.7141
     8.4004   8.4004  10.0615  10.0615

          k = 0.9435 0.2350-0.2350 (   574 PWs)   bands (ev):

    -3.4465  -3.4465  -0.5893  -0.5893   3.2299   3.2299   4.2380   4.2380
     7.9942   7.9942  10.0574  10.0574

          k = 1.0614 0.1171-0.1171 (   566 PWs)   bands (ev):

    -4.6447  -4.6447   1.5910   1.5910   4.0175   4.0175   4.2710   4.2710
     7.9245   7.9245  10.0028  10.0028

          k = 1.1792-0.0007 0.0007 (   564 PWs)   bands (ev):

    -5.4576  -5.4576   3.9733   3.9733   4.8181   4.8181   4.8323   4.8323
     7.6787   7.6787  10.2131  10.2131

          k = 0.4721 0.7064-0.2350 (   566 PWs)   bands (ev):

    -3.6430  -3.6430   0.3742   0.3742   2.4321   2.4321   3.7069   3.7069
     8.8028   8.8028   9.6550   9.6550

          k = 0.5900 0.5885 0.5900 (   564 PWs)   bands (ev):

    -5.5790  -5.5790   3.6302   3.6302   5.5460   5.5460   5.5798   5.5798
     8.2896   8.2896   9.1950   9.1950

     Writing output data file silicon.save/
 
     init_run     :      0.01s CPU      0.06s WALL (       1 calls)
     electrons    :      4.99s CPU      5.88s WALL (       1 calls)

     Called by init_run:
     wfcinit      :      0.00s CPU      0.00s WALL (       1 calls)
     potinit      :      0.00s CPU      0.02s WALL (       1 calls)
     hinit0       :      0.01s CPU      0.04s WALL (       1 calls)

     Called by electrons:
     c_bands      :      4.99s CPU      5.88s WALL (       1 calls)
     v_of_rho     :      0.00s CPU      0.00s WALL (       1 calls)

     Called by c_bands:
     init_us_2    :      0.00s CPU      0.00s WALL (      56 calls)
     cegterg      :      4.77s CPU      5.06s WALL (     106 calls)

     Called by sum_band:

     Called by *egterg:
     h_psi        :      2.19s CPU      2.40s WALL (    1914 calls)
     g_psi        :      0.01s CPU      0.01s WALL (    1752 calls)
     cdiaghg      :      2.28s CPU      2.43s WALL (    1808 calls)

     Called by h_psi:
     h_psi:pot    :      2.18s CPU      2.39s WALL (    1914 calls)
     h_psi:calbec :      0.06s CPU      0.11s WALL (    1914 calls)
     vloc_psi     :      2.09s CPU      2.24s WALL (    1914 calls)
     add_vuspsi   :      0.02s CPU      0.02s WALL (    1914 calls)

     General routines
     calbec       :      0.05s CPU      0.11s WALL (    1914 calls)
     fft          :      0.00s CPU      0.04s WALL (       6 calls)
     fftw         :      1.96s CPU      2.10s WALL (   51556 calls)
 
     Parallel routines
     fft_scatt_xy :      0.15s CPU      0.16s WALL (   51562 calls)
     fft_scatt_yz :      1.33s CPU      1.43s WALL (   51562 calls)
 
     PWSCF        :      5.42s CPU     13.65s WALL

 
   This run was terminated on:  13:51: 1  12Apr2021            

=------------------------------------------------------------------------------=
   JOB DONE.
=------------------------------------------------------------------------------=
