
     Program PWSCF v.6.4.1 starts on 12Apr2021 at 13:50:28 

     This program is part of the open-source Quantum ESPRESSO suite
     for quantum simulation of materials; please cite
         "P. Giannozzi et al., J. Phys.:Condens. Matter 21 395502 (2009);
         "P. Giannozzi et al., J. Phys.:Condens. Matter 29 465901 (2017);
          URL http://www.quantum-espresso.org", 
     in publications or presentations arising from this work. More details at
     http://www.quantum-espresso.org/quote

     Parallel version (MPI & OpenMP), running on      32 processor cores
     Number of MPI processes:                32
     Threads/MPI process:                     1

     MPI processes distributed on     1 nodes
     R & G space division:  proc/nbgrp/npool/nimage =      32
     Waiting for input...
     Reading input from standard input

     Current dimensions of program PWSCF are:
     Max number of different atomic species (ntypx) = 10
     Max number of k-points (npk) =  40000
     Max angular momentum in pseudopotentials (lmaxx) =  3

     Atomic positions and unit cell read from directory:
     ./silicon.save/
 
     Message from routine read_upf::
     Pseudo file Si_FR.UPF has been fixed on the fly.
To avoid this message in the future, permanently fix 
 your pseudo files following these instructions: 
https://gitlab.com/QEF/q-e/blob/master/upftools/how_to_fix_upf.md

     Subspace diagonalization in iterative solution of the eigenvalue problem:
     one sub-group per band group will be used
     scalapack distributed-memory algorithm (size of sub-group:  4*  4 procs)

     Message from routine setup:
     DEPRECATED: symmetry with ibrav=0, use correct ibrav instead
 
     Parallelization info
     --------------------
     sticks:   dense  smooth     PW     G-vecs:    dense   smooth      PW
     Min          11      11      3                  142      142      27
     Max          12      12      4                  145      145      31
     Sum         361     361    121                 4573     4573     941
 


     bravais-lattice index     =            0
     lattice parameter (alat)  =       7.2558  a.u.
     unit-cell volume          =     270.1072 (a.u.)^3
     number of atoms/cell      =            2
     number of atomic types    =            1
     number of electrons       =         8.00
     number of Kohn-Sham states=           64
     kinetic-energy cutoff     =      25.0000  Ry
     charge density cutoff     =     100.0000  Ry
     Exchange-correlation      = PZ ( 1  1  0  0 0 0)
     Non magnetic calculation with spin-orbit


     celldm(1)=   7.255773  celldm(2)=   0.000000  celldm(3)=   0.000000
     celldm(4)=   0.000000  celldm(5)=   0.000000  celldm(6)=   0.000000

     crystal axes: (cart. coord. in units of alat)
               a(1) = (   0.707107   0.707107   0.000000 )  
               a(2) = (   0.000000   0.707107   0.707107 )  
               a(3) = (   0.707107   0.000000   0.707107 )  

     reciprocal axes: (cart. coord. in units 2 pi/alat)
               b(1) = (  0.707107  0.707107 -0.707107 )  
               b(2) = ( -0.707107  0.707107  0.707107 )  
               b(3) = (  0.707107 -0.707107  0.707107 )  


     PseudoPot. # 1 for Si read from file:
     ../../../pseudo/ld1/Si_FR.UPF
     MD5 check sum: 0c20cc1f09e72bc250a06fb316886f38
     Pseudo is Norm-conserving, Zval =  4.0
     Generated using "atomic" code by A. Dal Corso v.6.0 svn rev. 13079
     Using radial grid of 1141 points,  3 beta functions with: 
                l(1) =   0
                l(2) =   1
                l(3) =   1

     atomic species   valence    mass     pseudopotential
        Si             4.00     1.00000     Si( 1.00)

     48 Sym. Ops., with inversion, found (36 have fractional translation)



   Cartesian axes

     site n.     atom                  positions (alat units)
         1           Si  tau(   1) = (  -0.1767767  -0.1767767  -0.1767767  )
         2           Si  tau(   2) = (   0.1767767   0.1767767   0.1767767  )

     number of k points=    16
                       cart. coord. in units 2pi/alat
        k(    1) = (   0.0000000   0.0000000   0.0000000), wk =   0.0046296
        k(    2) = (   0.1178511  -0.1178511   0.1178511), wk =   0.0370370
        k(    3) = (   0.2357023  -0.2357023   0.2357023), wk =   0.0370370
        k(    4) = (   0.3535534  -0.3535534   0.3535534), wk =   0.0185185
        k(    5) = (  -0.0000000   0.0000000   0.2357023), wk =   0.0277778
        k(    6) = (   0.1178511  -0.1178511   0.3535534), wk =   0.1111111
        k(    7) = (   0.2357023  -0.2357023   0.4714045), wk =   0.1111111
        k(    8) = (   0.3535534  -0.3535534   0.5892557), wk =   0.1111111
        k(    9) = (   0.4714045  -0.4714045   0.7071068), wk =   0.0555556
        k(   10) = (   0.0000000  -0.0000000   0.4714045), wk =   0.0277778
        k(   11) = (   0.1178511  -0.1178511   0.5892557), wk =   0.1111111
        k(   12) = (   0.2357023  -0.2357023   0.7071068), wk =   0.0555556
        k(   13) = (   0.0000000   0.0000000   0.7071068), wk =   0.0138889
        k(   14) = (   0.2357023   0.0000000   0.4714045), wk =   0.1111111
        k(   15) = (   0.3535534  -0.1178511   0.5892557), wk =   0.1111111
        k(   16) = (   0.2357023   0.0000000   0.7071068), wk =   0.0555556

     Dense  grid:     4573 G-vectors     FFT dimensions: (  24,  24,  24)

     Estimated max dynamical RAM per process >       1.34 MB

     Estimated total dynamical RAM >      42.80 MB

     The potential is recalculated from file :
     ./silicon.save/charge-density

     Starting wfcs are   16 randomized atomic wfcs +   48 random wfcs

     Band Structure Calculation
     Davidson diagonalization with overlap

     ethr =  1.25E-12,  avg # of iterations = 19.7

     total cpu time spent up to now is       12.2 secs

     End of band structure calculation

          k = 0.0000 0.0000 0.0000 (   537 PWs)   bands (ev):

    -5.9394  -5.9394   5.9764   5.9764   6.0265   6.0265   6.0265   6.0265
     8.5433   8.5433   8.5800   8.5800   8.5800   8.5800   9.1927   9.1927
    13.6724  13.6724  13.8048  13.8048  13.8048  13.8048  17.1570  17.1570
    17.1680  17.1680  17.1680  17.1680  21.0633  21.0633  28.9578  28.9578
    28.9614  28.9614  28.9614  28.9614  30.1375  30.1375  30.1375  30.1375
    31.0619  31.0619  31.1389  31.1389  31.1389  31.1389  35.3945  35.3945
    35.3945  35.3945  35.3945  35.3945  40.6786  40.6786  40.6803  40.6803
    40.6803  40.6803  41.3757  41.3757  44.5232  44.5232  44.5232  44.5232

          k = 0.1179-0.1179 0.1179 (   564 PWs)   bands (ev):

    -5.5776  -5.5776   3.6239   3.6239   5.5453   5.5453   5.5780   5.5780
     8.2881   8.2881   9.1977   9.1977   9.2227   9.2227  11.2906  11.2906
    13.1288  13.1288  13.1294  13.1294  14.8444  14.8444  16.5004  16.5004
    19.0694  19.0694  19.0759  19.0759  23.0741  23.0741  25.8380  25.8380
    25.8491  25.8491  26.2557  26.2557  29.8014  29.8014  29.8030  29.8030
    31.8723  31.8723  31.9111  31.9111  33.2203  33.2203  35.7231  35.7231
    36.8341  36.8341  38.4563  38.4563  38.4567  38.4567  39.7157  39.7157
    39.7234  39.7234  41.4216  41.4216  41.4242  41.4242  42.8444  42.8444

          k = 0.2357-0.2357 0.2357 (   577 PWs)   bands (ev):

    -4.5599  -4.5599   0.6726   0.6726   4.9977   4.9977   5.0305   5.0305
     7.6838   7.6838   9.4986   9.4986   9.5175   9.5175  13.7024  13.7024
    13.9988  13.9988  14.0051  14.0051  14.8746  14.8746  19.3345  19.3345
    20.5671  20.5671  20.5785  20.5785  22.5121  22.5121  23.5863  23.5863
    23.5928  23.5928  27.6203  27.6203  29.9257  29.9257  29.9278  29.9278
    30.9385  30.9385  32.3266  32.3266  32.3597  32.3597  35.1301  35.1301
    35.2593  35.2593  35.2664  35.2664  36.5789  36.5789  38.5067  38.5067
    38.5167  38.5167  39.6787  39.6787  39.6862  39.6862  41.1331  41.1331

          k = 0.3536-0.3536 0.3536 (   568 PWs)   bands (ev):

    -3.5981  -3.5981  -0.9677  -0.9677   4.8003   4.8003   4.8334   4.8334
     7.4576   7.4576   9.3354   9.3354   9.3509   9.3509  13.5636  13.5636
    16.5863  16.5863  16.5864  16.5864  17.0897  17.0897  17.2719  17.2719
    17.2921  17.2921  18.6419  18.6419  25.0705  25.0705  25.7339  25.7339
    27.5538  27.5538  27.5547  27.5547  27.7079  27.7079  27.7168  27.7168
    31.4106  31.4106  32.4071  32.4071  32.4076  32.4076  32.9199  32.9199
    32.9556  32.9556  34.0460  34.0460  37.2058  37.2058  37.9609  37.9609
    37.9771  37.9771  38.4877  38.4877  38.7302  38.7302  38.7358  38.7358

          k =-0.0000 0.0000 0.2357 (   564 PWs)   bands (ev):

    -5.4547  -5.4547   3.9647   3.9647   4.8135   4.8135   4.8277   4.8277
     7.6749   7.6749  10.2095  10.2095  10.3307  10.3307  10.3353  10.3353
    12.5182  12.5182  14.3400  14.3400  15.4938  15.4938  18.0037  18.0037
    18.0097  18.0097  18.5479  18.5479  24.1612  24.1612  25.2788  25.2788
    25.2938  25.2938  26.6801  26.6801  27.5257  27.5257  29.6160  29.6160
    32.2283  32.2283  32.6894  32.6894  32.7191  32.7191  37.6622  37.6622
    37.6677  37.6677  37.8967  37.8967  38.5167  38.5167  38.5170  38.5170
    38.8990  38.8990  39.3120  39.3120  41.8820  41.8820  43.6157  43.6157

          k = 0.1179-0.1179 0.3536 (   566 PWs)   bands (ev):

    -4.6380  -4.6380   1.5753   1.5753   4.0119   4.0119   4.2692   4.2692
     7.9261   7.9261  10.0093  10.0093  10.4846  10.4846  11.0634  11.0634
    14.9641  14.9641  15.1126  15.1126  16.2529  16.2529  18.6704  18.6704
    19.7041  19.7041  21.1860  21.1860  21.9376  21.9376  22.8460  22.8460
    25.6326  25.6326  26.5323  26.5323  27.4742  27.4742  29.1514  29.1514
    31.2924  31.2924  32.1761  32.1761  33.0525  33.0525  35.2689  35.2689
    35.5687  35.5687  35.7567  35.7567  37.5878  37.5878  38.2554  38.2554
    38.8115  38.8115  40.0130  40.0130  41.3363  41.3363  42.2666  42.2666

          k = 0.2357-0.2357 0.4714 (   574 PWs)   bands (ev):

    -3.4410  -3.4410  -0.5972  -0.5972   3.2264   3.2264   4.2394   4.2394
     7.9951   7.9951  10.0562  10.0562  10.6188  10.6188  12.3620  12.3620
    15.2973  15.2973  16.4824  16.4824  17.6137  17.6137  17.8068  17.8068
    18.4176  18.4176  21.9352  21.9352  23.7306  23.7306  24.9448  24.9448
    25.9804  25.9804  26.4184  26.4184  26.9953  26.9953  28.6092  28.6092
    29.7686  29.7686  31.9609  31.9609  32.7208  32.7208  33.1570  33.1570
    33.3780  33.3780  35.1531  35.1531  35.7813  35.7813  36.0873  36.0873
    37.8536  37.8536  39.6461  39.6461  40.5500  40.5500  40.5535  40.5535

          k = 0.3536-0.3536 0.5893 (   575 PWs)   bands (ev):

    -3.8286  -3.8286   0.0042   0.0042   2.9550   2.9550   4.7182   4.7182
     8.4041   8.4041  10.0626  10.0626  10.2280  10.2280  13.1783  13.1783
    13.3382  13.3382  15.2954  15.2954  17.3413  17.3413  18.6600  18.6600
    20.7001  20.7001  21.3602  21.3602  22.0969  22.0969  23.7805  23.7805
    25.8292  25.8292  27.6689  27.6689  28.0111  28.0111  28.7449  28.7449
    30.6666  30.6666  30.7261  30.7261  32.8481  32.8481  33.4181  33.4181
    33.8507  33.8507  34.3267  34.3267  35.5205  35.5205  37.8360  37.8360
    39.1388  39.1388  39.6834  39.6834  40.4785  40.4785  41.0707  41.0707

          k = 0.4714-0.4714 0.7071 (   564 PWs)   bands (ev):

    -4.9886  -4.9886   2.2934   2.2934   3.5907   3.5907   5.4487   5.4487
     8.9967   8.9967   9.5579   9.5579   9.7932   9.7932  11.5706  11.5706
    12.1303  12.1303  15.2960  15.2960  16.2671  16.2671  17.4142  17.4142
    19.2810  19.2810  21.4699  21.4699  21.9832  21.9832  24.4723  24.4723
    26.4084  26.4084  26.5235  26.5235  26.8880  26.8880  28.2914  28.2914
    32.1015  32.1015  32.4287  32.4287  34.1477  34.1477  35.0700  35.0700
    36.5308  36.5308  36.5777  36.5777  37.2534  37.2534  39.7525  39.7525
    40.0152  40.0152  40.1150  40.1150  40.3735  40.3735  41.3504  41.3504

          k = 0.0000-0.0000 0.4714 (   576 PWs)   bands (ev):

    -4.0333  -4.0333   1.0078   1.0078   3.5949   3.5949   3.6002   3.6002
     6.6773   6.6773   7.9398   7.9398  13.2133  13.2133  13.2200  13.2200
    15.5854  15.5854  15.9420  15.9420  18.8069  18.8069  19.4364  19.4364
    19.4380  19.4380  20.9992  20.9992  22.2317  22.2317  22.2371  22.2371
    22.2493  22.2493  24.6702  24.6702  28.7339  28.7339  30.3901  30.3901
    31.2806  31.2806  31.2896  31.2896  32.2260  32.2260  33.4934  33.4934
    33.6125  33.6125  34.5251  34.5251  34.5478  34.5478  40.2864  40.2864
    41.3411  41.3411  41.3951  41.3951  41.4061  41.4061  42.3590  42.3590

          k = 0.1179-0.1179 0.5893 (   572 PWs)   bands (ev):

    -2.8669  -2.8669  -0.5417  -0.5417   2.3683   2.3683   3.4616   3.4616
     7.0117   7.0117   8.6703   8.6703  13.3861  13.3861  13.4246  13.4246
    16.4899  16.4899  16.6893  16.6893  18.3381  18.3381  18.6120  18.6120
    20.5508  20.5508  21.6061  21.6061  21.9475  21.9475  24.5078  24.5078
    24.5206  24.5206  25.3254  25.3254  26.3833  26.3833  28.4362  28.4362
    29.0768  29.0768  29.4940  29.4940  30.1627  30.1627  32.5236  32.5236
    34.9529  34.9529  35.0004  35.0004  37.6087  37.6087  37.6272  37.6272
    37.9934  37.9934  40.2510  40.2510  41.4074  41.4074  41.7479  41.7479

          k = 0.2357-0.2357 0.7071 (   572 PWs)   bands (ev):

    -2.6669  -2.6669  -0.7491  -0.7491   1.5797   1.5797   3.9041   3.9041
     7.5169   7.5169  11.7472  11.7472  12.4535  12.4535  12.9864  12.9864
    13.3014  13.3014  13.6850  13.6850  20.2181  20.2181  20.7659  20.7659
    21.4265  21.4265  21.7281  21.7281  22.5275  22.5275  23.4163  23.4163
    24.1146  24.1146  25.7290  25.7290  28.0728  28.0728  28.5146  28.5146
    28.7660  28.7660  29.5406  29.5406  32.4937  32.4937  32.7317  32.7317
    33.3088  33.3088  34.1332  34.1332  35.0374  35.0374  35.0747  35.0747
    40.3342  40.3342  40.5509  40.5509  40.7476  40.7476  41.2943  41.2943

          k = 0.0000 0.0000 0.7071 (   588 PWs)   bands (ev):

    -1.7927  -1.7927  -1.7927  -1.7927   3.1633   3.1633   3.1633   3.1633
     6.6541   6.6541   6.6541   6.6541  15.9748  15.9748  15.9748  15.9748
    16.9747  16.9747  16.9747  16.9747  18.5917  18.5917  18.5917  18.5917
    18.7120  18.7120  18.7120  18.7120  24.7063  24.7063  24.7063  24.7063
    25.5524  25.5524  25.5524  25.5524  26.1466  26.1466  26.1466  26.1466
    27.0932  27.0932  27.0932  27.0932  31.3173  31.3173  31.3173  31.3173
    35.1419  35.1419  35.1419  35.1419  39.8131  39.8131  39.8131  39.8131
    39.9464  39.9464  39.9464  39.9464  41.6871  41.6871  41.6871  41.6871

          k = 0.2357 0.0000 0.4714 (   566 PWs)   bands (ev):

    -3.6459  -3.6459   0.3767   0.3767   2.4299   2.4299   3.7140   3.7140
     8.8146   8.8146   9.6676   9.6676  10.1891  10.1891  13.0180  13.0180
    14.9472  14.9472  15.8142  15.8142  18.8266  18.8266  19.1659  19.1659
    19.7441  19.7441  20.7937  20.7937  22.4359  22.4359  23.7322  23.7322
    25.3919  25.3919  26.7090  26.7090  26.9329  26.9329  28.5356  28.5356
    29.7761  29.7761  30.2798  30.2798  32.4370  32.4370  33.2527  33.2527
    33.9427  33.9427  35.9587  35.9587  37.1393  37.1393  37.4418  37.4418
    38.1526  38.1526  38.5494  38.5494  39.4044  39.4044  42.5683  42.5683

          k = 0.3536-0.1179 0.5893 (   564 PWs)   bands (ev):

    -2.6567  -2.6567  -0.8240  -0.8240   1.9877   1.9877   3.2446   3.2446
     9.3136   9.3136   9.5119   9.5119  12.0458  12.0458  12.4590  12.4590
    13.5035  13.5035  17.0427  17.0427  17.8425  17.8425  19.3221  19.3221
    22.0547  22.0547  22.6668  22.6668  22.9020  22.9020  23.7633  23.7633
    24.3936  24.3936  26.2937  26.2937  26.7574  26.7574  27.5098  27.5098
    28.8228  28.8228  31.3108  31.3108  31.6477  31.6477  31.7669  31.7669
    33.8276  33.8276  35.3892  35.3892  36.1266  36.1266  36.6912  36.6912
    36.9759  36.9759  38.0893  38.0893  39.3873  39.3873  41.9116  41.9116

          k = 0.2357 0.0000 0.7071 (   568 PWs)   bands (ev):

    -1.6719  -1.6719  -1.6671  -1.6671   2.3493   2.3493   2.3613   2.3613
     8.6997   8.6997   8.7062   8.7062  12.6994  12.6994  12.7106  12.7106
    16.4886  16.4886  16.5052  16.5052  18.8324  18.8324  18.8489  18.8489
    22.3115  22.3115  22.3251  22.3251  23.1192  23.1192  23.1216  23.1216
    24.5992  24.5992  24.6019  24.6019  27.2372  27.2372  27.2405  27.2405
    28.9959  28.9959  28.9992  28.9992  30.7276  30.7276  30.7284  30.7284
    35.3824  35.3824  35.3836  35.3836  36.6414  36.6414  36.6424  36.6424
    38.0126  38.0126  38.0145  38.0145  42.6061  42.6061  42.6091  42.6091

     Writing output data file silicon.save/
 
     init_run     :      0.01s CPU      0.08s WALL (       1 calls)
     electrons    :      6.01s CPU      6.38s WALL (       1 calls)

     Called by init_run:
     wfcinit      :      0.00s CPU      0.00s WALL (       1 calls)
     potinit      :      0.00s CPU      0.01s WALL (       1 calls)
     hinit0       :      0.01s CPU      0.07s WALL (       1 calls)

     Called by electrons:
     c_bands      :      6.00s CPU      6.38s WALL (       1 calls)
     v_of_rho     :      0.00s CPU      0.00s WALL (       1 calls)

     Called by c_bands:
     init_us_2    :      0.00s CPU      0.00s WALL (      16 calls)
     cegterg      :      5.79s CPU      6.09s WALL (      20 calls)

     Called by sum_band:

     Called by *egterg:
     h_psi        :      2.22s CPU      2.42s WALL (     351 calls)
     g_psi        :      0.01s CPU      0.01s WALL (     315 calls)
     cdiaghg      :      3.41s CPU      3.55s WALL (     331 calls)

     Called by h_psi:
     h_psi:pot    :      2.22s CPU      2.42s WALL (     351 calls)
     h_psi:calbec :      0.03s CPU      0.05s WALL (     351 calls)
     vloc_psi     :      2.18s CPU      2.35s WALL (     351 calls)
     add_vuspsi   :      0.01s CPU      0.01s WALL (     351 calls)

     General routines
     calbec       :      0.02s CPU      0.05s WALL (     351 calls)
     fft          :      0.00s CPU      0.07s WALL (       6 calls)
     fftw         :      2.05s CPU      2.21s WALL (   55152 calls)
 
     Parallel routines
     fft_scatt_xy :      0.16s CPU      0.17s WALL (   55158 calls)
     fft_scatt_yz :      1.39s CPU      1.51s WALL (   55158 calls)
 
     PWSCF        :      6.43s CPU     12.95s WALL

 
   This run was terminated on:  13:50:41  12Apr2021            

=------------------------------------------------------------------------------=
   JOB DONE.
=------------------------------------------------------------------------------=
