TACC:  Starting up job 7666501 
TACC:  Starting parallel tasks... 

     Program PWSCF v.6.4 starts on  1May2021 at 15:14:15 

     This program is part of the open-source Quantum ESPRESSO suite
     for quantum simulation of materials; please cite
         "P. Giannozzi et al., J. Phys.:Condens. Matter 21 395502 (2009);
         "P. Giannozzi et al., J. Phys.:Condens. Matter 29 465901 (2017);
          URL http://www.quantum-espresso.org", 
     in publications or presentations arising from this work. More details at
     http://www.quantum-espresso.org/quote

     Parallel version (MPI), running on    64 processors

     MPI processes distributed on     1 nodes
     K-points division:     npool     =       4
     R & G space division:  proc/nbgrp/npool/nimage =      16
     Waiting for input...
     Reading input from standard input

     Current dimensions of program PWSCF are:
     Max number of different atomic species (ntypx) = 10
     Max number of k-points (npk) =  40000
     Max angular momentum in pseudopotentials (lmaxx) =  3

     Atomic positions and unit cell read from directory:
     ./cspbcl3.save/
 

     Subspace diagonalization in iterative solution of the eigenvalue problem:
     a serial algorithm will be used

 
     Parallelization info
     --------------------
     sticks:   dense  smooth     PW     G-vecs:    dense   smooth      PW
     Min          44      44     13                  889      889     143
     Max          46      46     14                  891      891     146
     Sum         717     717    213                14243    14243    2301
 


     bravais-lattice index     =            0
     lattice parameter (alat)  =      10.5806  a.u.
     unit-cell volume          =    1184.4808 (a.u.)^3
     number of atoms/cell      =            5
     number of atomic types    =            3
     number of electrons       =        44.00
     number of Kohn-Sham states=          300
     kinetic-energy cutoff     =      20.0000  Ry
     charge density cutoff     =      80.0000  Ry
     Exchange-correlation      = PBE ( 1  4  3  4 0 0)
     Non magnetic calculation with spin-orbit


     celldm(1)=  10.580577  celldm(2)=   0.000000  celldm(3)=   0.000000
     celldm(4)=   0.000000  celldm(5)=   0.000000  celldm(6)=   0.000000

     crystal axes: (cart. coord. in units of alat)
               a(1) = (   1.000000   0.000000   0.000000 )  
               a(2) = (   0.000000   1.000000   0.000000 )  
               a(3) = (   0.000000   0.000000   1.000000 )  

     reciprocal axes: (cart. coord. in units 2 pi/alat)
               b(1) = (  1.000000  0.000000  0.000000 )  
               b(2) = (  0.000000  1.000000  0.000000 )  
               b(3) = (  0.000000  0.000000  1.000000 )  


     PseudoPot. # 1 for Cs read from file:
     ../pseudopotentials/Cs.upf
     MD5 check sum: 0949d7fbeea01e664226101e754fa92a
     Pseudo is Norm-conserving + core correction, Zval =  9.0
     Generated using ONCVPSP code by D. R. Hamann
     Using radial grid of 2414 points, 14 beta functions with: 
                l(1) =   0
                l(2) =   0
                l(3) =   1
                l(4) =   1
                l(5) =   1
                l(6) =   1
                l(7) =   2
                l(8) =   2
                l(9) =   2
               l(10) =   2
               l(11) =   3
               l(12) =   3
               l(13) =   3
               l(14) =   3

     PseudoPot. # 2 for Pb read from file:
     ../pseudopotentials/Pb.upf
     MD5 check sum: 73abbbd201951038fc1bdacebad68d2f
     Pseudo is Norm-conserving + core correction, Zval = 14.0
     Generated using ONCVPSP code by D. R. Hamann
     Using radial grid of 1782 points, 10 beta functions with: 
                l(1) =   0
                l(2) =   0
                l(3) =   1
                l(4) =   1
                l(5) =   1
                l(6) =   1
                l(7) =   2
                l(8) =   2
                l(9) =   2
               l(10) =   2

     PseudoPot. # 3 for Cl read from file:
     ../pseudopotentials/Cl.upf
     MD5 check sum: b1ddb435c2952724bdf458cc656d2c80
     Pseudo is Norm-conserving + core correction, Zval =  7.0
     Generated using ONCVPSP code by D. R. Hamann
     Using radial grid of 1028 points, 10 beta functions with: 
                l(1) =   0
                l(2) =   0
                l(3) =   1
                l(4) =   1
                l(5) =   1
                l(6) =   1
                l(7) =   2
                l(8) =   2
                l(9) =   2
               l(10) =   2

     atomic species   valence    mass     pseudopotential
        Cs             9.00     1.00000     Cs( 1.00)
        Pb            14.00     1.00000     Pb( 1.00)
        Cl             7.00     1.00000     Cl( 1.00)

     48 Sym. Ops., with inversion, found


                                    s                        frac. trans.

      isym =  1     identity                                     

 cryst.   s( 1) = (     1          0          0      )
                  (     0          1          0      )
                  (     0          0          1      )

 cart.    s( 1) = (  1.0000000  0.0000000  0.0000000 )
                  (  0.0000000  1.0000000  0.0000000 )
                  (  0.0000000  0.0000000  1.0000000 )


      isym =  2     180 deg rotation - cart. axis [0,0,1]        

 cryst.   s( 2) = (    -1          0          0      )
                  (     0         -1          0      )
                  (     0          0          1      )

 cart.    s( 2) = ( -1.0000000  0.0000000  0.0000000 )
                  (  0.0000000 -1.0000000  0.0000000 )
                  (  0.0000000  0.0000000  1.0000000 )


      isym =  3     180 deg rotation - cart. axis [0,1,0]        

 cryst.   s( 3) = (    -1          0          0      )
                  (     0          1          0      )
                  (     0          0         -1      )

 cart.    s( 3) = ( -1.0000000  0.0000000  0.0000000 )
                  (  0.0000000  1.0000000  0.0000000 )
                  (  0.0000000  0.0000000 -1.0000000 )


      isym =  4     180 deg rotation - cart. axis [1,0,0]        

 cryst.   s( 4) = (     1          0          0      )
                  (     0         -1          0      )
                  (     0          0         -1      )

 cart.    s( 4) = (  1.0000000  0.0000000  0.0000000 )
                  (  0.0000000 -1.0000000  0.0000000 )
                  (  0.0000000  0.0000000 -1.0000000 )


      isym =  5     180 deg rotation - cart. axis [1,1,0]        

 cryst.   s( 5) = (     0          1          0      )
                  (     1          0          0      )
                  (     0          0         -1      )

 cart.    s( 5) = (  0.0000000  1.0000000  0.0000000 )
                  (  1.0000000  0.0000000  0.0000000 )
                  (  0.0000000  0.0000000 -1.0000000 )


      isym =  6     180 deg rotation - cart. axis [1,-1,0]       

 cryst.   s( 6) = (     0         -1          0      )
                  (    -1          0          0      )
                  (     0          0         -1      )

 cart.    s( 6) = (  0.0000000 -1.0000000  0.0000000 )
                  ( -1.0000000  0.0000000  0.0000000 )
                  (  0.0000000  0.0000000 -1.0000000 )


      isym =  7      90 deg rotation - cart. axis [0,0,-1]       

 cryst.   s( 7) = (     0         -1          0      )
                  (     1          0          0      )
                  (     0          0          1      )

 cart.    s( 7) = (  0.0000000  1.0000000  0.0000000 )
                  ( -1.0000000  0.0000000  0.0000000 )
                  (  0.0000000  0.0000000  1.0000000 )


      isym =  8      90 deg rotation - cart. axis [0,0,1]        

 cryst.   s( 8) = (     0          1          0      )
                  (    -1          0          0      )
                  (     0          0          1      )

 cart.    s( 8) = (  0.0000000 -1.0000000  0.0000000 )
                  (  1.0000000  0.0000000  0.0000000 )
                  (  0.0000000  0.0000000  1.0000000 )


      isym =  9     180 deg rotation - cart. axis [1,0,1]        

 cryst.   s( 9) = (     0          0          1      )
                  (     0         -1          0      )
                  (     1          0          0      )

 cart.    s( 9) = (  0.0000000  0.0000000  1.0000000 )
                  (  0.0000000 -1.0000000  0.0000000 )
                  (  1.0000000  0.0000000  0.0000000 )


      isym = 10     180 deg rotation - cart. axis [-1,0,1]       

 cryst.   s(10) = (     0          0         -1      )
                  (     0         -1          0      )
                  (    -1          0          0      )

 cart.    s(10) = (  0.0000000  0.0000000 -1.0000000 )
                  (  0.0000000 -1.0000000  0.0000000 )
                  ( -1.0000000  0.0000000  0.0000000 )


      isym = 11      90 deg rotation - cart. axis [0,1,0]        

 cryst.   s(11) = (     0          0         -1      )
                  (     0          1          0      )
                  (     1          0          0      )

 cart.    s(11) = (  0.0000000  0.0000000  1.0000000 )
                  (  0.0000000  1.0000000  0.0000000 )
                  ( -1.0000000  0.0000000  0.0000000 )


      isym = 12      90 deg rotation - cart. axis [0,-1,0]       

 cryst.   s(12) = (     0          0          1      )
                  (     0          1          0      )
                  (    -1          0          0      )

 cart.    s(12) = (  0.0000000  0.0000000 -1.0000000 )
                  (  0.0000000  1.0000000  0.0000000 )
                  (  1.0000000  0.0000000  0.0000000 )


      isym = 13     180 deg rotation - cart. axis [0,1,1]        

 cryst.   s(13) = (    -1          0          0      )
                  (     0          0          1      )
                  (     0          1          0      )

 cart.    s(13) = ( -1.0000000  0.0000000  0.0000000 )
                  (  0.0000000  0.0000000  1.0000000 )
                  (  0.0000000  1.0000000  0.0000000 )


      isym = 14     180 deg rotation - cart. axis [0,1,-1]       

 cryst.   s(14) = (    -1          0          0      )
                  (     0          0         -1      )
                  (     0         -1          0      )

 cart.    s(14) = ( -1.0000000  0.0000000  0.0000000 )
                  (  0.0000000  0.0000000 -1.0000000 )
                  (  0.0000000 -1.0000000  0.0000000 )


      isym = 15      90 deg rotation - cart. axis [-1,0,0]       

 cryst.   s(15) = (     1          0          0      )
                  (     0          0         -1      )
                  (     0          1          0      )

 cart.    s(15) = (  1.0000000  0.0000000  0.0000000 )
                  (  0.0000000  0.0000000  1.0000000 )
                  (  0.0000000 -1.0000000  0.0000000 )


      isym = 16      90 deg rotation - cart. axis [1,0,0]        

 cryst.   s(16) = (     1          0          0      )
                  (     0          0          1      )
                  (     0         -1          0      )

 cart.    s(16) = (  1.0000000  0.0000000  0.0000000 )
                  (  0.0000000  0.0000000 -1.0000000 )
                  (  0.0000000  1.0000000  0.0000000 )


      isym = 17     120 deg rotation - cart. axis [-1,-1,-1]     

 cryst.   s(17) = (     0          0          1      )
                  (     1          0          0      )
                  (     0          1          0      )

 cart.    s(17) = (  0.0000000  1.0000000  0.0000000 )
                  (  0.0000000  0.0000000  1.0000000 )
                  (  1.0000000  0.0000000  0.0000000 )


      isym = 18     120 deg rotation - cart. axis [-1,1,1]       

 cryst.   s(18) = (     0          0         -1      )
                  (    -1          0          0      )
                  (     0          1          0      )

 cart.    s(18) = (  0.0000000 -1.0000000  0.0000000 )
                  (  0.0000000  0.0000000  1.0000000 )
                  ( -1.0000000  0.0000000  0.0000000 )


      isym = 19     120 deg rotation - cart. axis [1,1,-1]       

 cryst.   s(19) = (     0          0         -1      )
                  (     1          0          0      )
                  (     0         -1          0      )

 cart.    s(19) = (  0.0000000  1.0000000  0.0000000 )
                  (  0.0000000  0.0000000 -1.0000000 )
                  ( -1.0000000  0.0000000  0.0000000 )


      isym = 20     120 deg rotation - cart. axis [1,-1,1]       

 cryst.   s(20) = (     0          0          1      )
                  (    -1          0          0      )
                  (     0         -1          0      )

 cart.    s(20) = (  0.0000000 -1.0000000  0.0000000 )
                  (  0.0000000  0.0000000 -1.0000000 )
                  (  1.0000000  0.0000000  0.0000000 )


      isym = 21     120 deg rotation - cart. axis [1,1,1]        

 cryst.   s(21) = (     0          1          0      )
                  (     0          0          1      )
                  (     1          0          0      )

 cart.    s(21) = (  0.0000000  0.0000000  1.0000000 )
                  (  1.0000000  0.0000000  0.0000000 )
                  (  0.0000000  1.0000000  0.0000000 )


      isym = 22     120 deg rotation - cart. axis [-1,1,-1]      

 cryst.   s(22) = (     0         -1          0      )
                  (     0          0         -1      )
                  (     1          0          0      )

 cart.    s(22) = (  0.0000000  0.0000000  1.0000000 )
                  ( -1.0000000  0.0000000  0.0000000 )
                  (  0.0000000 -1.0000000  0.0000000 )


      isym = 23     120 deg rotation - cart. axis [1,-1,-1]      

 cryst.   s(23) = (     0         -1          0      )
                  (     0          0          1      )
                  (    -1          0          0      )

 cart.    s(23) = (  0.0000000  0.0000000 -1.0000000 )
                  ( -1.0000000  0.0000000  0.0000000 )
                  (  0.0000000  1.0000000  0.0000000 )


      isym = 24     120 deg rotation - cart. axis [-1,-1,1]      

 cryst.   s(24) = (     0          1          0      )
                  (     0          0         -1      )
                  (    -1          0          0      )

 cart.    s(24) = (  0.0000000  0.0000000 -1.0000000 )
                  (  1.0000000  0.0000000  0.0000000 )
                  (  0.0000000 -1.0000000  0.0000000 )


      isym = 25     inversion                                    

 cryst.   s(25) = (    -1          0          0      )
                  (     0         -1          0      )
                  (     0          0         -1      )

 cart.    s(25) = ( -1.0000000  0.0000000  0.0000000 )
                  (  0.0000000 -1.0000000  0.0000000 )
                  (  0.0000000  0.0000000 -1.0000000 )


      isym = 26     inv. 180 deg rotation - cart. axis [0,0,1]   

 cryst.   s(26) = (     1          0          0      )
                  (     0          1          0      )
                  (     0          0         -1      )

 cart.    s(26) = (  1.0000000  0.0000000  0.0000000 )
                  (  0.0000000  1.0000000  0.0000000 )
                  (  0.0000000  0.0000000 -1.0000000 )


      isym = 27     inv. 180 deg rotation - cart. axis [0,1,0]   

 cryst.   s(27) = (     1          0          0      )
                  (     0         -1          0      )
                  (     0          0          1      )

 cart.    s(27) = (  1.0000000  0.0000000  0.0000000 )
                  (  0.0000000 -1.0000000  0.0000000 )
                  (  0.0000000  0.0000000  1.0000000 )


      isym = 28     inv. 180 deg rotation - cart. axis [1,0,0]   

 cryst.   s(28) = (    -1          0          0      )
                  (     0          1          0      )
                  (     0          0          1      )

 cart.    s(28) = ( -1.0000000  0.0000000  0.0000000 )
                  (  0.0000000  1.0000000  0.0000000 )
                  (  0.0000000  0.0000000  1.0000000 )


      isym = 29     inv. 180 deg rotation - cart. axis [1,1,0]   

 cryst.   s(29) = (     0         -1          0      )
                  (    -1          0          0      )
                  (     0          0          1      )

 cart.    s(29) = (  0.0000000 -1.0000000  0.0000000 )
                  ( -1.0000000  0.0000000  0.0000000 )
                  (  0.0000000  0.0000000  1.0000000 )


      isym = 30     inv. 180 deg rotation - cart. axis [1,-1,0]  

 cryst.   s(30) = (     0          1          0      )
                  (     1          0          0      )
                  (     0          0          1      )

 cart.    s(30) = (  0.0000000  1.0000000  0.0000000 )
                  (  1.0000000  0.0000000  0.0000000 )
                  (  0.0000000  0.0000000  1.0000000 )


      isym = 31     inv.  90 deg rotation - cart. axis [0,0,-1]  

 cryst.   s(31) = (     0          1          0      )
                  (    -1          0          0      )
                  (     0          0         -1      )

 cart.    s(31) = (  0.0000000 -1.0000000  0.0000000 )
                  (  1.0000000  0.0000000  0.0000000 )
                  (  0.0000000  0.0000000 -1.0000000 )


      isym = 32     inv.  90 deg rotation - cart. axis [0,0,1]   

 cryst.   s(32) = (     0         -1          0      )
                  (     1          0          0      )
                  (     0          0         -1      )

 cart.    s(32) = (  0.0000000  1.0000000  0.0000000 )
                  ( -1.0000000  0.0000000  0.0000000 )
                  (  0.0000000  0.0000000 -1.0000000 )


      isym = 33     inv. 180 deg rotation - cart. axis [1,0,1]   

 cryst.   s(33) = (     0          0         -1      )
                  (     0          1          0      )
                  (    -1          0          0      )

 cart.    s(33) = (  0.0000000  0.0000000 -1.0000000 )
                  (  0.0000000  1.0000000  0.0000000 )
                  ( -1.0000000  0.0000000  0.0000000 )


      isym = 34     inv. 180 deg rotation - cart. axis [-1,0,1]  

 cryst.   s(34) = (     0          0          1      )
                  (     0          1          0      )
                  (     1          0          0      )

 cart.    s(34) = (  0.0000000  0.0000000  1.0000000 )
                  (  0.0000000  1.0000000  0.0000000 )
                  (  1.0000000  0.0000000  0.0000000 )


      isym = 35     inv.  90 deg rotation - cart. axis [0,1,0]   

 cryst.   s(35) = (     0          0          1      )
                  (     0         -1          0      )
                  (    -1          0          0      )

 cart.    s(35) = (  0.0000000  0.0000000 -1.0000000 )
                  (  0.0000000 -1.0000000  0.0000000 )
                  (  1.0000000  0.0000000  0.0000000 )


      isym = 36     inv.  90 deg rotation - cart. axis [0,-1,0]  

 cryst.   s(36) = (     0          0         -1      )
                  (     0         -1          0      )
                  (     1          0          0      )

 cart.    s(36) = (  0.0000000  0.0000000  1.0000000 )
                  (  0.0000000 -1.0000000  0.0000000 )
                  ( -1.0000000  0.0000000  0.0000000 )


      isym = 37     inv. 180 deg rotation - cart. axis [0,1,1]   

 cryst.   s(37) = (     1          0          0      )
                  (     0          0         -1      )
                  (     0         -1          0      )

 cart.    s(37) = (  1.0000000  0.0000000  0.0000000 )
                  (  0.0000000  0.0000000 -1.0000000 )
                  (  0.0000000 -1.0000000  0.0000000 )


      isym = 38     inv. 180 deg rotation - cart. axis [0,1,-1]  

 cryst.   s(38) = (     1          0          0      )
                  (     0          0          1      )
                  (     0          1          0      )

 cart.    s(38) = (  1.0000000  0.0000000  0.0000000 )
                  (  0.0000000  0.0000000  1.0000000 )
                  (  0.0000000  1.0000000  0.0000000 )


      isym = 39     inv.  90 deg rotation - cart. axis [-1,0,0]  

 cryst.   s(39) = (    -1          0          0      )
                  (     0          0          1      )
                  (     0         -1          0      )

 cart.    s(39) = ( -1.0000000  0.0000000  0.0000000 )
                  (  0.0000000  0.0000000 -1.0000000 )
                  (  0.0000000  1.0000000  0.0000000 )


      isym = 40     inv.  90 deg rotation - cart. axis [1,0,0]   

 cryst.   s(40) = (    -1          0          0      )
                  (     0          0         -1      )
                  (     0          1          0      )

 cart.    s(40) = ( -1.0000000  0.0000000  0.0000000 )
                  (  0.0000000  0.0000000  1.0000000 )
                  (  0.0000000 -1.0000000  0.0000000 )


      isym = 41     inv. 120 deg rotation - cart. axis [-1,-1,-1]

 cryst.   s(41) = (     0          0         -1      )
                  (    -1          0          0      )
                  (     0         -1          0      )

 cart.    s(41) = (  0.0000000 -1.0000000  0.0000000 )
                  (  0.0000000  0.0000000 -1.0000000 )
                  ( -1.0000000  0.0000000  0.0000000 )


      isym = 42     inv. 120 deg rotation - cart. axis [-1,1,1]  

 cryst.   s(42) = (     0          0          1      )
                  (     1          0          0      )
                  (     0         -1          0      )

 cart.    s(42) = (  0.0000000  1.0000000  0.0000000 )
                  (  0.0000000  0.0000000 -1.0000000 )
                  (  1.0000000  0.0000000  0.0000000 )


      isym = 43     inv. 120 deg rotation - cart. axis [1,1,-1]  

 cryst.   s(43) = (     0          0          1      )
                  (    -1          0          0      )
                  (     0          1          0      )

 cart.    s(43) = (  0.0000000 -1.0000000  0.0000000 )
                  (  0.0000000  0.0000000  1.0000000 )
                  (  1.0000000  0.0000000  0.0000000 )


      isym = 44     inv. 120 deg rotation - cart. axis [1,-1,1]  

 cryst.   s(44) = (     0          0         -1      )
                  (     1          0          0      )
                  (     0          1          0      )

 cart.    s(44) = (  0.0000000  1.0000000  0.0000000 )
                  (  0.0000000  0.0000000  1.0000000 )
                  ( -1.0000000  0.0000000  0.0000000 )


      isym = 45     inv. 120 deg rotation - cart. axis [1,1,1]   

 cryst.   s(45) = (     0         -1          0      )
                  (     0          0         -1      )
                  (    -1          0          0      )

 cart.    s(45) = (  0.0000000  0.0000000 -1.0000000 )
                  ( -1.0000000  0.0000000  0.0000000 )
                  (  0.0000000 -1.0000000  0.0000000 )


      isym = 46     inv. 120 deg rotation - cart. axis [-1,1,-1] 

 cryst.   s(46) = (     0          1          0      )
                  (     0          0          1      )
                  (    -1          0          0      )

 cart.    s(46) = (  0.0000000  0.0000000 -1.0000000 )
                  (  1.0000000  0.0000000  0.0000000 )
                  (  0.0000000  1.0000000  0.0000000 )


      isym = 47     inv. 120 deg rotation - cart. axis [1,-1,-1] 

 cryst.   s(47) = (     0          1          0      )
                  (     0          0         -1      )
                  (     1          0          0      )

 cart.    s(47) = (  0.0000000  0.0000000  1.0000000 )
                  (  1.0000000  0.0000000  0.0000000 )
                  (  0.0000000 -1.0000000  0.0000000 )


      isym = 48     inv. 120 deg rotation - cart. axis [-1,-1,1] 

 cryst.   s(48) = (     0         -1          0      )
                  (     0          0          1      )
                  (     1          0          0      )

 cart.    s(48) = (  0.0000000  0.0000000  1.0000000 )
                  ( -1.0000000  0.0000000  0.0000000 )
                  (  0.0000000  1.0000000  0.0000000 )


   Cartesian axes

     site n.     atom                  positions (alat units)
         1           Cs  tau(   1) = (   0.5000000   0.5000000   0.5000000  )
         2           Pb  tau(   2) = (   0.0000000   0.0000000   0.0000000  )
         3           Cl  tau(   3) = (   0.5000000   0.0000000   0.0000000  )
         4           Cl  tau(   4) = (   0.0000000   0.5000000   0.0000000  )
         5           Cl  tau(   5) = (   0.0000000   0.0000000   0.5000000  )

   Crystallographic axes

     site n.     atom                  positions (cryst. coord.)
         1           Cs  tau(   1) = (  0.5000000  0.5000000  0.5000000  )
         2           Pb  tau(   2) = (  0.0000000  0.0000000  0.0000000  )
         3           Cl  tau(   3) = (  0.5000000  0.0000000  0.0000000  )
         4           Cl  tau(   4) = (  0.0000000  0.5000000  0.0000000  )
         5           Cl  tau(   5) = (  0.0000000  0.0000000  0.5000000  )

     number of k points=     4
                       cart. coord. in units 2pi/alat
        k(    1) = (   0.1250000   0.1250000   0.1250000), wk =   0.1250000
        k(    2) = (   0.1250000   0.1250000   0.3750000), wk =   0.3750000
        k(    3) = (   0.1250000   0.3750000   0.3750000), wk =   0.3750000
        k(    4) = (   0.3750000   0.3750000   0.3750000), wk =   0.1250000

                       cryst. coord.
        k(    1) = (   0.1250000   0.1250000   0.1250000), wk =   0.1250000
        k(    2) = (   0.1250000   0.1250000   0.3750000), wk =   0.3750000
        k(    3) = (   0.1250000   0.3750000   0.3750000), wk =   0.3750000
        k(    4) = (   0.3750000   0.3750000   0.3750000), wk =   0.1250000

     Dense  grid:    14243 G-vectors     FFT dimensions: (  32,  32,  32)

     Dynamical RAM for                 wfc:       1.02 MB

     Dynamical RAM for     wfc (w. buffer):       1.02 MB

     Dynamical RAM for           str. fact:       0.04 MB

     Dynamical RAM for           local pot:       0.00 MB

     Dynamical RAM for          nlocal pot:       0.34 MB

     Dynamical RAM for                qrad:      25.40 MB

     Dynamical RAM for          rho,v,vnew:       0.35 MB

     Dynamical RAM for           G-vectors:       0.06 MB

     Dynamical RAM for          h,s,v(r/c):      65.92 MB

     Dynamical RAM for          <psi|beta>:       1.81 MB

     Dynamical RAM for                 psi:       4.06 MB

     Dynamical RAM for                hpsi:       4.06 MB

     Dynamical RAM for      wfcinit/wfcrot:       3.59 MB

     Estimated static dynamical RAM per process >      27.38 MB

     Estimated max dynamical RAM per process >     103.24 MB

     Estimated total dynamical RAM >       6.45 GB

     Check: negative core charge=   -0.000022

     The potential is recalculated from file :
     ./cspbcl3.save/charge-density


     negative rho (up, down):  2.734E-03 0.000E+00
     Starting wfcs are   52 randomized atomic wfcs +  248 random wfcs

     Band Structure Calculation
     Davidson diagonalization with overlap

     Computing kpt #:     1
     total cpu time spent up to now is       36.9 secs

     ethr =  2.27E-09,  avg # of iterations = 16.2

     total cpu time spent up to now is       36.9 secs

     End of band structure calculation

          k = 0.1250 0.1250 0.1250 (  1806 PWs)   bands (ev):

   -17.0995 -17.0995 -10.4876 -10.4876 -10.3051 -10.3051 -10.3015 -10.3015
    -8.7203  -8.7203  -8.7165  -8.7165  -7.0764  -7.0764  -7.0101  -7.0101
    -7.0062  -7.0062  -4.9047  -4.9047  -3.3552  -3.3552  -3.3414  -3.3414
    -2.8391  -2.8391  -0.3612  -0.3612  -0.0784  -0.0784   0.2673   0.2673
     1.5054   1.5054   1.5292   1.5292   1.6273   1.6273   1.6812   1.6812
     1.7589   1.7589   1.7936   1.7936   8.0067   8.0067   8.5416   8.5416
     8.7665   8.7665   8.8007   8.8007   9.7137   9.7137   9.7203   9.7203
     9.8910   9.8910  10.4750  10.4750  10.7048  10.7048  12.3596  12.3596
    13.0001  13.0001  13.0316  13.0316  13.7926  13.7926  14.2589  14.2589
    14.3920  14.3920  14.8386  14.8386  14.9048  14.9048  16.0717  16.0717
    16.3493  16.3493  16.3859  16.3859  16.8638  16.8638  17.2151  17.2151
    17.7403  17.7403  17.7879  17.7879  18.3431  18.3431  18.5389  18.5389
    18.6608  18.6608  18.7375  18.7375  19.1445  19.1445  19.1687  19.1687
    19.4002  19.4002  19.4368  19.4368  19.5070  19.5070  20.3972  20.3972
    20.9259  20.9259  21.4752  21.4752  21.4876  21.4876  22.3338  22.3338
    22.3367  22.3367  22.5327  22.5327  22.6467  22.6467  22.6575  22.6575
    23.1468  23.1468  23.2237  23.2237  24.0765  24.0765  24.4712  24.4712
    24.5023  24.5023  25.5450  25.5450  25.6132  25.6132  25.7184  25.7184
    25.8298  25.8298  25.8773  25.8773  26.1312  26.1312  26.7512  26.7512
    26.9676  26.9676  26.9706  26.9706  27.6814  27.6814  27.7467  27.7467
    27.7867  27.7867  29.4691  29.4691  29.4726  29.4726  29.5150  29.5150
    29.6137  29.6137  29.6245  29.6245  29.7831  29.7831  30.0273  30.0273
    30.0312  30.0312  30.6889  30.6889  30.7284  30.7284  31.2956  31.2956
    31.7484  31.7484  32.1798  32.1798  32.2082  32.2082  32.2739  32.2739
    32.6881  32.6881  32.6905  32.6905  33.0798  33.0798  33.2434  33.2434
    33.4318  33.4318  34.3767  34.3767  35.0072  35.0072  35.1544  35.1544
    35.4053  35.4053  35.4120  35.4120  35.8150  35.8150  36.1179  36.1179
    36.4024  36.4024  36.5529  36.5529  36.7802  36.7802  36.8053  36.8053
    37.0466  37.0466  38.2498  38.2498  38.3238  38.3238  38.3275  38.3275
    38.3404  38.3404  39.3138  39.3138  39.7066  39.7066  40.1360  40.1360
    40.3633  40.3633  40.3887  40.3887  40.6798  40.6798  40.8770  40.8770
    41.0404  41.0404  41.0458  41.0458  41.2188  41.2188  41.2326  41.2326
    42.2264  42.2264  42.3642  42.3642  42.3895  42.3895  42.4668  42.4668
    43.1521  43.1521  43.1549  43.1549  43.4248  43.4248  43.5462  43.5462
    43.5896  43.5896  43.6024  43.6024  43.9736  43.9736  44.2187  44.2187
    44.6176  44.6176  44.6996  44.6996  44.7399  44.7399  45.0675  45.0675
    45.5487  45.5487  45.5752  45.5752  45.9719  45.9719  45.9925  45.9925
    46.2901  46.2901  46.4266  46.4266

          k = 0.1250 0.1250 0.3750 (  1794 PWs)   bands (ev):

   -17.0976 -17.0976 -10.4473 -10.4473 -10.2701 -10.2701 -10.1221 -10.1221
    -8.7999  -8.7999  -8.6621  -8.6621  -7.1129  -7.1129  -7.0509  -7.0509
    -6.9318  -6.9318  -4.8968  -4.8968  -3.3933  -3.3933  -3.3427  -3.3427
    -3.3260  -3.3260  -0.1994  -0.1994   0.0954   0.0954   0.9798   0.9798
     1.3624   1.3624   1.5119   1.5119   1.6322   1.6322   1.6905   1.6905
     1.7461   1.7461   2.4887   2.4887   7.2452   7.2452   8.7707   8.7707
     9.1828   9.1828   9.3633   9.3633   9.5257   9.5257   9.6948   9.6948
    10.1073  10.1073  10.6871  10.6871  10.9144  10.9144  11.6267  11.6267
    12.2074  12.2074  12.4870  12.4870  12.7431  12.7431  13.6016  13.6016
    14.0478  14.0478  14.6348  14.6348  14.6931  14.6931  15.7142  15.7142
    15.9292  15.9292  16.1596  16.1596  16.7494  16.7494  17.1556  17.1556
    17.4934  17.4934  18.1005  18.1005  18.1894  18.1894  18.6068  18.6068
    19.0178  19.0178  19.3086  19.3086  19.4541  19.4541  19.8264  19.8264
    20.1503  20.1503  20.1811  20.1811  20.3510  20.3510  20.3804  20.3804
    21.1562  21.1562  21.5087  21.5087  21.6928  21.6928  22.2593  22.2593
    22.4216  22.4216  22.5955  22.5955  22.7185  22.7185  23.6094  23.6094
    23.8092  23.8092  23.9215  23.9215  24.0912  24.0912  24.4300  24.4300
    24.5257  24.5257  24.8442  24.8442  25.1766  25.1766  25.1928  25.1928
    25.5539  25.5539  25.5924  25.5924  25.9691  25.9691  26.6866  26.6866
    26.7301  26.7301  27.1059  27.1059  27.3195  27.3195  28.1545  28.1545
    28.8643  28.8643  28.9128  28.9128  29.0654  29.0654  29.2360  29.2360
    29.2493  29.2493  29.7796  29.7796  29.9440  29.9440  30.6319  30.6319
    30.7959  30.7959  30.9537  30.9537  31.3488  31.3488  31.5739  31.5739
    31.7712  31.7712  32.1313  32.1313  32.4571  32.4571  32.6761  32.6761
    32.7492  32.7492  33.1024  33.1024  33.3128  33.3128  33.6225  33.6225
    34.3291  34.3291  34.4000  34.4000  34.6428  34.6428  34.9729  34.9729
    35.2094  35.2094  35.4738  35.4738  35.7552  35.7552  36.2908  36.2908
    36.3871  36.3871  36.7241  36.7241  37.0575  37.0575  37.3321  37.3321
    37.6407  37.6407  37.7916  37.7916  37.8585  37.8585  38.1262  38.1262
    38.4763  38.4763  38.5709  38.5709  38.8277  38.8277  38.8891  38.8891
    39.2568  39.2568  39.3887  39.3887  39.8486  39.8486  40.0650  40.0650
    40.2697  40.2697  40.2953  40.2953  40.8357  40.8357  40.9159  40.9159
    41.0711  41.0711  41.6598  41.6598  42.0100  42.0100  42.3959  42.3959
    42.7330  42.7330  42.9858  42.9858  43.0699  43.0699  43.3649  43.3649
    43.4263  43.4263  43.6506  43.6506  43.8610  43.8610  44.0943  44.0943
    44.1263  44.1263  44.9078  44.9078  44.9841  44.9841  45.0437  45.0437
    45.3984  45.3984  45.4104  45.4104  45.8837  45.8837  46.0340  46.0340
    46.1957  46.1957  46.3663  46.3663

          k = 0.1250 0.3750 0.3750 (  1784 PWs)   bands (ev):

   -17.0960 -17.0960 -10.3560 -10.3560 -10.1371 -10.1371 -10.1031 -10.1031
    -8.8129  -8.8129  -8.6893  -8.6893  -7.1220  -7.1220  -7.0277  -7.0277
    -6.9995  -6.9995  -4.9036  -4.9036  -3.9287  -3.9287  -3.3672  -3.3672
    -3.3343  -3.3343   0.0151   0.0151   0.9326   0.9326   1.1432   1.1432
     1.2808   1.2808   1.4659   1.4659   1.6333   1.6333   1.7795   1.7795
     1.9703   1.9703   3.0158   3.0158   6.5378   6.5378   7.8438   7.8438
     8.9496   8.9496   9.5309   9.5309   9.8338   9.8338  10.1056  10.1056
    10.3664  10.3664  10.6045  10.6045  10.6265  10.6265  11.4118  11.4118
    12.2086  12.2086  12.4022  12.4022  13.0064  13.0064  13.0825  13.0825
    14.0622  14.0622  14.1911  14.1911  14.7408  14.7408  15.9509  15.9509
    15.9590  15.9590  16.2240  16.2240  16.3339  16.3339  16.6448  16.6448
    17.2894  17.2894  17.9667  17.9667  18.1111  18.1111  18.7330  18.7330
    18.8564  18.8564  18.9320  18.9320  19.0074  19.0074  19.4286  19.4286
    19.9403  19.9403  20.5125  20.5125  20.7266  20.7266  20.8083  20.8083
    21.3837  21.3837  21.4737  21.4737  21.5269  21.5269  22.2113  22.2113
    22.5833  22.5833  22.7231  22.7231  22.9628  22.9628  23.2375  23.2375
    23.6501  23.6501  24.0243  24.0243  24.1990  24.1990  24.5827  24.5827
    24.8444  24.8444  25.2025  25.2025  25.8639  25.8639  25.9317  25.9317
    26.0813  26.0813  26.1822  26.1822  26.9760  26.9760  27.3267  27.3267
    27.4933  27.4933  27.8594  27.8594  28.1388  28.1388  28.1814  28.1814
    28.3032  28.3032  28.4385  28.4385  29.1489  29.1489  29.3295  29.3295
    29.5451  29.5451  29.8269  29.8269  30.0534  30.0534  30.7667  30.7667
    30.8471  30.8471  31.0643  31.0643  31.1995  31.1995  31.3202  31.3202
    31.7104  31.7104  31.7548  31.7548  32.5215  32.5215  32.7519  32.7519
    32.8676  32.8676  33.0432  33.0432  33.0809  33.0809  33.7720  33.7720
    33.8039  33.8039  34.4575  34.4575  34.6034  34.6034  34.8089  34.8089
    35.1653  35.1653  35.5242  35.5242  35.7183  35.7183  35.7344  35.7344
    35.9207  35.9207  36.1405  36.1405  36.3160  36.3160  36.3566  36.3566
    36.8367  36.8367  37.3258  37.3258  37.8192  37.8192  38.1280  38.1280
    38.2577  38.2577  38.4876  38.4876  38.6448  38.6448  39.0509  39.0509
    39.2546  39.2546  39.8497  39.8497  39.8847  39.8847  39.9046  39.9046
    40.1834  40.1834  40.6207  40.6207  40.7563  40.7563  41.1859  41.1859
    41.2288  41.2288  41.5134  41.5134  41.7135  41.7135  41.8339  41.8339
    42.3680  42.3680  42.6495  42.6495  42.8317  42.8317  43.0739  43.0739
    43.3015  43.3015  43.6171  43.6171  43.8192  43.8192  44.0469  44.0469
    44.1386  44.1386  44.2720  44.2720  44.6696  44.6696  44.6846  44.6846
    44.9874  44.9874  45.6224  45.6224  45.6475  45.6475  45.7535  45.7535
    45.9302  45.9302  46.0382  46.0382

          k = 0.3750 0.3750 0.3750 (  1790 PWs)   bands (ev):

   -17.0950 -17.0950 -10.1567 -10.1567 -10.1208 -10.1208 -10.1112 -10.1112
    -8.9127  -8.9127  -8.8103  -8.8103  -7.1989  -7.1989  -7.1339  -7.1339
    -7.0797  -7.0797  -4.9271  -4.9271  -4.4774  -4.4774  -3.4015  -3.4015
    -3.3827  -3.3827   1.0360   1.0360   1.1334   1.1334   1.1380   1.1380
     1.3780   1.3780   1.4652   1.4652   1.9203   1.9203   1.9875   1.9875
     1.9894   1.9894   3.4332   3.4332   5.9322   5.9322   7.3564   7.3564
     7.4476   7.4476   9.4622   9.4622   9.9078   9.9078  10.0762  10.0762
    10.1492  10.1492  10.6921  10.6921  10.7441  10.7441  11.9056  11.9056
    12.3846  12.3846  12.4975  12.4975  13.1810  13.1810  13.1854  13.1854
    13.7681  13.7681  14.4500  14.4500  15.5579  15.5579  15.6522  15.6522
    15.8112  15.8112  16.7051  16.7051  16.7192  16.7192  16.8474  16.8474
    17.4675  17.4675  17.4920  17.4920  17.6864  17.6864  17.6894  17.6894
    18.2240  18.2240  18.7656  18.7656  18.8113  18.8113  18.8527  18.8527
    19.2928  19.2928  20.3554  20.3554  20.3777  20.3777  20.4281  20.4281
    21.1256  21.1256  21.2133  21.2133  21.6416  21.6416  22.0492  22.0492
    22.0964  22.0964  22.4731  22.4731  23.0985  23.0985  23.6927  23.6927
    23.9008  23.9008  24.4873  24.4873  24.5866  24.5866  24.9655  24.9655
    25.6269  25.6269  26.0603  26.0603  26.0852  26.0852  26.4316  26.4316
    26.8812  26.8812  26.9169  26.9169  27.0950  27.0950  27.5374  27.5374
    27.5510  27.5510  28.3732  28.3732  28.6816  28.6816  28.7056  28.7056
    29.2622  29.2622  29.5498  29.5498  29.5820  29.5820  29.9776  29.9776
    30.0749  30.0749  30.1841  30.1841  30.3457  30.3457  30.6774  30.6774
    30.6940  30.6940  30.9730  30.9730  30.9873  30.9873  31.5886  31.5886
    31.7854  31.7854  31.9594  31.9594  32.1652  32.1652  32.4260  32.4260
    32.7049  32.7049  33.0210  33.0210  33.4592  33.4592  33.4639  33.4639
    33.6418  33.6418  34.4249  34.4249  34.4652  34.4652  34.6412  34.6412
    34.9806  34.9806  35.0489  35.0489  35.6303  35.6303  35.7030  35.7030
    35.8189  35.8189  36.0597  36.0597  36.1213  36.1213  36.1593  36.1593
    36.1994  36.1994  37.0682  37.0682  37.1889  37.1889  37.2387  37.2387
    37.4561  37.4561  37.5197  37.5197  37.6547  37.6547  37.6579  37.6579
    37.9552  37.9552  38.3802  38.3802  38.4743  38.4743  39.6774  39.6774
    40.3866  40.3866  40.3966  40.3966  40.6053  40.6053  40.6405  40.6405
    40.7819  40.7819  41.1220  41.1220  41.4980  41.4980  41.8343  41.8343
    41.8347  41.8347  42.4796  42.4796  42.9759  42.9759  42.9870  42.9870
    43.3329  43.3329  43.3350  43.3350  43.6633  43.6633  43.6916  43.6916
    43.9400  43.9400  44.7459  44.7459  44.7527  44.7527  45.0194  45.0194
    45.6173  45.6173  45.6426  45.6426  45.6460  45.6460  46.0809  46.0809
    46.2438  46.2438  46.2551  46.2551

     Writing output data file cspbcl3.save/
 
     init_run     :      0.18s CPU      1.36s WALL (       1 calls)
     electrons    :     30.78s CPU     31.30s WALL (       1 calls)

     Called by init_run:
     wfcinit      :      0.00s CPU      0.09s WALL (       1 calls)
     wfcinit:atom :      0.00s CPU      0.01s WALL (       1 calls)
     wfcinit:wfcr :      0.41s CPU      0.52s WALL (       1 calls)
     potinit      :      0.01s CPU      0.11s WALL (       1 calls)
     hinit0       :      0.14s CPU      1.05s WALL (       1 calls)

     Called by electrons:
     c_bands      :     30.78s CPU     31.29s WALL (       1 calls)
     v_of_rho     :      0.01s CPU      0.04s WALL (       1 calls)
     v_h          :      0.00s CPU      0.00s WALL (       1 calls)
     v_xc         :      0.01s CPU      0.03s WALL (       1 calls)

     Called by c_bands:
     init_us_2    :      0.00s CPU      0.00s WALL (       1 calls)
     cegterg      :     30.32s CPU     30.66s WALL (       1 calls)

     Called by sum_band:

     Called by *egterg:
     h_psi        :      2.61s CPU      2.92s WALL (      19 calls)
     g_psi        :      0.02s CPU      0.02s WALL (      17 calls)
     cdiaghg      :     27.10s CPU     27.15s WALL (      18 calls)
     cegterg:over :      0.49s CPU      0.51s WALL (      17 calls)
     cegterg:upda :      0.26s CPU      0.26s WALL (      17 calls)
     cegterg:last :      0.12s CPU      0.12s WALL (       3 calls)

     Called by h_psi:
     h_psi:pot    :      2.61s CPU      2.91s WALL (      19 calls)
     h_psi:calbec :      0.09s CPU      0.10s WALL (      19 calls)
     vloc_psi     :      1.86s CPU      2.14s WALL (      19 calls)
     add_vuspsi   :      0.65s CPU      0.66s WALL (      19 calls)

     General routines
     calbec       :      0.09s CPU      0.10s WALL (      19 calls)
     fft          :      0.04s CPU      0.90s WALL (      14 calls)
     fftw         :      1.65s CPU      1.90s WALL (   12212 calls)
     davcio       :      0.00s CPU      0.01s WALL (       2 calls)
 
     Parallel routines
     fft_scatt_xy :      0.17s CPU      0.19s WALL (   12226 calls)
     fft_scatt_yz :      0.86s CPU      1.01s WALL (   12226 calls)
 
     PWSCF        :     34.86s CPU     37.83s WALL

 
   This run was terminated on:  15:14:53   1May2021            

=------------------------------------------------------------------------------=
   JOB DONE.
=------------------------------------------------------------------------------=
TACC:  Shutdown complete. Exiting. 
