
     Program PWSCF v.6.4.1 starts on  3May2021 at 12:50:13 

     This program is part of the open-source Quantum ESPRESSO suite
     for quantum simulation of materials; please cite
         "P. Giannozzi et al., J. Phys.:Condens. Matter 21 395502 (2009);
         "P. Giannozzi et al., J. Phys.:Condens. Matter 29 465901 (2017);
          URL http://www.quantum-espresso.org", 
     in publications or presentations arising from this work. More details at
     http://www.quantum-espresso.org/quote

     Parallel version (MPI & OpenMP), running on     320 processor cores
     Number of MPI processes:               320
     Threads/MPI process:                     1

     MPI processes distributed on    10 nodes
     K-points division:     npool     =      10
     R & G space division:  proc/nbgrp/npool/nimage =      32
     Waiting for input...
     Reading input from standard input

     Current dimensions of program PWSCF are:
     Max number of different atomic species (ntypx) = 10
     Max number of k-points (npk) =  40000
     Max angular momentum in pseudopotentials (lmaxx) =  3

     Atomic positions and unit cell read from directory:
     ./MoS2.save/
 
     Message from routine readpp:
     file ./MoS2.save/Mo_FR.UPF not found
     Message from routine readpp:
     file ./MoS2.save/S_FR.UPF not found

     Subspace diagonalization in iterative solution of the eigenvalue problem:
     one sub-group per band group will be used
     scalapack distributed-memory algorithm (size of sub-group:  4*  4 procs)

     Message from routine setup:
     DEPRECATED: symmetry with ibrav=0, use correct ibrav instead
 
     Parallelization info
     --------------------
     sticks:   dense  smooth     PW     G-vecs:    dense   smooth      PW
     Min          12      12      3                  980      980     171
     Max          13      13      4                 1004     1004     202
     Sum         385     385    127                31921    31921    6161
 


     bravais-lattice index     =            0
     lattice parameter (alat)  =       5.9867  a.u.
     unit-cell volume          =     938.4712 (a.u.)^3
     number of atoms/cell      =            3
     number of atomic types    =            2
     number of electrons       =        26.00
     number of Kohn-Sham states=          502
     kinetic-energy cutoff     =      40.0000  Ry
     charge density cutoff     =     160.0000  Ry
     Exchange-correlation      = PBE ( 1  4  3  4 0 0)
     Non magnetic calculation with spin-orbit


     celldm(1)=   5.986676  celldm(2)=   0.000000  celldm(3)=   0.000000
     celldm(4)=   0.000000  celldm(5)=   0.000000  celldm(6)=   0.000000

     crystal axes: (cart. coord. in units of alat)
               a(1) = (   1.000000   0.000000   0.000000 )  
               a(2) = (  -0.500000   0.866025   0.000000 )  
               a(3) = (   0.000000   0.000000   5.050485 )  

     reciprocal axes: (cart. coord. in units 2 pi/alat)
               b(1) = (  1.000000  0.577350  0.000000 )  
               b(2) = (  0.000000  1.154701  0.000000 )  
               b(3) = (  0.000000  0.000000  0.198001 )  


     PseudoPot. # 1 for Mo read from file:
     ../../../pseudo/oncvpsp/Mo_FR.UPF
     MD5 check sum: 091442f9a55d305e44af61b3fb26c716
     Pseudo is Norm-conserving, Zval = 14.0
     Generated using ONCVPSP code by D. R. Hamann
     Using radial grid of 1526 points, 10 beta functions with: 
                l(1) =   0
                l(2) =   0
                l(3) =   1
                l(4) =   1
                l(5) =   1
                l(6) =   1
                l(7) =   2
                l(8) =   2
                l(9) =   2
               l(10) =   2

     PseudoPot. # 2 for S  read from file:
     ../../../pseudo/oncvpsp/S_FR.UPF
     MD5 check sum: 1ec1d62f6016a84edfc3cbeb70a0ad55
     Pseudo is Norm-conserving, Zval =  6.0
     Generated using ONCVPSP code by D. R. Hamann
     Using radial grid of 1146 points,  6 beta functions with: 
                l(1) =   0
                l(2) =   0
                l(3) =   1
                l(4) =   1
                l(5) =   1
                l(6) =   1

     atomic species   valence    mass     pseudopotential
        Mo            14.00     1.00000     Mo( 1.00)
        S              6.00     1.00000     S ( 1.00)

     12 Sym. Ops. (no inversion) found



   Cartesian axes

     site n.     atom                  positions (alat units)
         1           Mo  tau(   1) = (  -0.0000000   0.5773503   0.0000000  )
         2           S   tau(   2) = (   0.5000000   0.2886751  -0.4944526  )
         3           S   tau(   3) = (   0.5000000   0.2886751   0.4944526  )

     number of k points=    10
                       cart. coord. in units 2pi/alat
        k(    1) = (   0.0000000   0.0000000   0.0000000), wk =   0.0277778
        k(    2) = (   0.0000000   0.1924501   0.0000000), wk =   0.0833333
        k(    3) = (   0.0000000   0.3849002   0.0000000), wk =   0.0833333
        k(    4) = (   0.0000000   0.5773503   0.0000000), wk =   0.0833333
        k(    5) = (   0.0000000   0.7698004   0.0000000), wk =   0.0833333
        k(    6) = (   0.0000000   0.9622504   0.0000000), wk =   0.0833333
        k(    7) = (   0.1666667   0.2886751   0.0000000), wk =   0.1666667
        k(    8) = (   0.1666667   0.4811252   0.0000000), wk =   0.1666667
        k(    9) = (   0.1666667   0.6735753   0.0000000), wk =   0.1666667
        k(   10) = (   0.3333333   0.5773503   0.0000000), wk =   0.0555556

     Dense  grid:    31921 G-vectors     FFT dimensions: (  25,  25, 125)

     Estimated max dynamical RAM per process >      16.46 MB

     Estimated total dynamical RAM >       5.14 GB
 ----2D----2D----2D----2D----2D----2D----2D----2D----2D----2D----2D----2D
  The code is running with the 2D cutoff
  Please refer to:
  Sohier, T., Calandra, M., & Mauri, F. (2017), 
  Density functional perturbation theory for gated two-dimensional heterostructu
 res:
  Theoretical developments and application to flexural phonons in graphene.
  Physical Review B, 96(7), 75448. https://doi.org/10.1103/PhysRevB.96.075448
 ----2D----2D----2D----2D----2D----2D----2D----2D----2D----2D----2D----2D

     The potential is recalculated from file :
     ./MoS2.save/charge-density

     Starting wfcs are   36 randomized atomic wfcs +  466 random wfcs

     Band Structure Calculation
     CG style diagonalization
     c_bands:  6 eigenvalues not converged

     ethr =  3.85E-13,  avg # of iterations = 64.0

     total cpu time spent up to now is       23.3 secs

     End of band structure calculation

          k = 0.0000 0.0000 0.0000 (  3949 PWs)   bands (ev):

   -66.7334 -66.7334 -42.4733 -42.4733 -40.0459 -40.0459 -39.8877 -39.8877
   -20.0517 -20.0517 -18.7477 -18.7477 -11.5647 -11.5647  -8.5456  -8.5456
    -8.4804  -8.4804  -7.7327  -7.7327  -7.4312  -7.4312  -7.3458  -7.3458
    -5.9546  -5.9546  -3.1456  -3.1456  -3.0659  -3.0659  -2.8710  -2.8710
    -2.8688  -2.8688   0.0056   0.0056   0.5263   0.5263   0.7736   0.7736
     3.2526   3.2526   5.0753   5.0753   5.1554   5.1554   5.3297   5.3297
     6.3080   6.3080   7.1304   7.1304   7.1494   7.1494   7.3181   7.3181
    10.3511  10.3511  10.4868  10.4868  10.4999  10.4999  10.6791  10.6791
    10.7346  10.7346  10.7377  10.7377  13.0135  13.0135  13.4258  13.4258
    14.0068  14.0068  15.4469  15.4469  16.9966  16.9966  17.1265  17.1265
    18.3283  18.3283  18.6887  18.6887  18.8043  18.8043  18.8135  18.8135
    19.4557  19.4557  19.6157  19.6157  19.6270  19.6270  19.7678  19.7678
    19.9523  19.9523  19.9570  19.9570  20.4757  20.4757  20.8630  20.8630
    21.0887  21.0887  21.1919  21.1919  23.1675  23.1675  23.5141  23.5141
    23.5255  23.5255  23.6614  23.6614  23.7241  23.7241  24.0239  24.0239
    24.8474  24.8474  24.9041  24.9041  25.2427  25.2427  25.3221  25.3221
    25.4472  25.4472  25.4562  25.4562  26.0366  26.0366  26.9847  26.9847
    27.9205  27.9205  27.9467  27.9467  28.6832  28.6832  28.7019  28.7019
    28.7038  28.7038  30.0180  30.0180  30.0698  30.0698  30.0750  30.0750
    30.3008  30.3008  31.3912  31.3912  31.3958  31.3958  32.0770  32.0770
    32.3809  32.3809  32.4616  32.4616  32.4660  32.4660  32.5329  32.5329
    33.7192  33.7192  33.7728  33.7728  33.7853  33.7853  33.8309  33.8309
    33.8359  33.8359  34.4306  34.4306  35.4310  35.4310  35.6284  35.6284
    35.6310  35.6310  36.3726  36.3726  36.4703  36.4703  36.4721  36.4721
    37.0144  37.0144  37.0901  37.0901  37.5920  37.5920  37.6083  37.6083
    37.8601  37.8601  37.8815  37.8815  39.1563  39.1563  39.2118  39.2118
    39.4429  39.4429  40.1980  40.1980  40.2164  40.2164  40.6658  40.6658
    41.2264  41.2264  41.3198  41.3198  41.4050  41.4050  41.4542  41.4542
    41.4772  41.4772  41.5318  41.5318  42.2988  42.2988  42.4477  42.4477
    42.4736  42.4736  43.2912  43.2912  44.1159  44.1159  45.0266  45.0266
    45.4644  45.4644  45.4788  45.4788  46.2377  46.2377  46.2530  46.2530
    47.4045  47.4045  47.4179  47.4179  47.4868  47.4868  47.6994  47.6994
    48.1749  48.1749  48.5143  48.5143  48.5175  48.5175  49.4942  49.4942
    50.0426  50.0426  50.0784  50.0784  50.8873  50.8873  51.1848  51.1848
    51.1923  51.1923  51.2109  51.2109  51.2244  51.2244  51.7438  51.7438
    52.7028  52.7028  53.3900  53.3900  53.4363  53.4363  53.4384  53.4384
    54.3375  54.3375  54.5975  54.5975  54.8610  54.8610  54.8691  54.8691
    54.8754  54.8754  54.8767  54.8767  56.2076  56.2076  56.2604  56.2604
    56.2614  56.2614  56.3977  56.3977  56.6059  56.6059  57.2098  57.2098
    57.2107  57.2107  57.2578  57.2578  57.2640  57.2640  57.7007  57.7007
    58.1001  58.1001  58.7089  58.7089  58.7273  58.7273  59.4190  59.4190
    59.7470  59.7470  59.7507  59.7507  59.9873  59.9873  60.0025  60.0025
    60.3120  60.3120  60.6855  60.6855  60.9920  60.9920  61.0281  61.0281
    61.0473  61.0473  61.1617  61.1617  61.5715  61.5715  61.5747  61.5747
    61.6270  61.6270  61.8105  61.8105  62.1042  62.1042  62.1054  62.1054
    62.4236  62.4236  62.4571  62.4571  63.1642  63.1642  63.5693  63.5693
    64.0053  64.0053  64.0152  64.0152  64.4085  64.4085  64.4285  64.4285
    64.6584  64.6584  64.7087  64.7087  64.7133  64.7133  65.8745  65.8745
    65.9211  65.9211  65.9459  65.9459  66.0157  66.0157  66.0214  66.0214
    66.1919  66.1919  66.5063  66.5063  66.9393  66.9393  66.9405  66.9405
    67.1143  67.1143  67.1757  67.1757  67.1897  67.1897  67.2564  67.2564
    67.3044  67.3044  67.3086  67.3086  68.9933  68.9933  69.2055  69.2055
    69.3953  69.3953  69.4049  69.4049  69.4154  69.4154  70.2244  70.2244
    70.2296  70.2296  70.6635  70.6635  71.5270  71.5270  72.3291  72.3291
    72.4498  72.4498  72.4563  72.4563  72.5039  72.5039  72.5346  72.5346
    72.5441  72.5441  72.6118  72.6118  72.8608  72.8608  73.4469  73.4469
    73.4472  73.4472  74.5603  74.5603  74.8456  74.8456  74.8742  74.8742
    74.8855  74.8855  74.9100  74.9100  75.0686  75.0686  75.1553  75.1553
    75.1838  75.1838  75.2945  75.2945  75.3073  75.3073  75.6975  75.6975
    75.7170  75.7170  75.8837  75.8837  76.0643  76.0643  76.4270  76.4270
    76.4551  76.4551  77.5837  77.5837  77.5965  77.5965  77.6206  77.6206
    77.6247  77.6247  77.8886  77.8886  77.9428  77.9428  77.9541  77.9541
    78.1712  78.1712  78.1840  78.1840  78.2077  78.2077

          k = 0.0000 0.1925 0.0000 (  3983 PWs)   bands (ev):

   -66.7235 -66.7235 -42.5004 -42.5004 -40.0614 -40.0614 -39.9479 -39.9479
   -19.6515 -19.6515 -18.5829 -18.5829 -11.1459 -11.1459  -9.2768  -9.2768
    -8.8516  -8.8516  -8.0999  -8.0999  -7.9443  -7.9443  -7.0043  -7.0043
    -6.2296  -6.2296  -3.6121  -3.6121  -3.3007  -3.3007  -3.2510  -3.2510
    -2.5088  -2.5088   0.7588   0.7588   1.0202   1.0202   2.1509   2.1509
     4.0394   4.0394   4.2999   4.2999   5.5542   5.5542   5.9125   5.9125
     6.3331   6.3331   6.7178   6.7178   6.8470   6.8470   7.4195   7.4195
     8.7736   8.7736   9.4341   9.4341   9.8578   9.8578  11.1083  11.1083
    11.9678  11.9678  13.0256  13.0256  13.7300  13.7300  13.9967  13.9967
    14.4700  14.4700  14.9584  14.9584  15.6238  15.6238  16.0918  16.0918
    16.8841  16.8841  16.9101  16.9101  17.1724  17.1724  17.6822  17.6822
    18.4750  18.4750  18.5418  18.5418  19.1970  19.1970  19.2681  19.2681
    19.4409  19.4409  20.0885  20.0885  21.2684  21.2684  21.5456  21.5456
    22.1163  22.1163  22.3229  22.3229  23.3792  23.3792  23.4935  23.4935
    23.5917  23.5917  24.1017  24.1017  24.4893  24.4893  24.9447  24.9447
    24.9636  24.9636  25.3422  25.3422  25.5854  25.5854  26.2934  26.2934
    26.2999  26.2999  26.4747  26.4747  27.1379  27.1379  27.8629  27.8629
    27.9200  27.9200  28.1130  28.1130  28.4054  28.4054  28.4325  28.4325
    28.6188  28.6188  29.0332  29.0332  29.7209  29.7209  30.2270  30.2270
    30.4345  30.4345  30.9030  30.9030  31.1358  31.1358  31.3600  31.3600
    31.7311  31.7311  32.3386  32.3386  32.5800  32.5800  32.7654  32.7654
    32.9281  32.9281  33.1232  33.1232  33.2615  33.2615  34.3866  34.3866
    34.4231  34.4231  34.7943  34.7943  35.1625  35.1625  35.5493  35.5493
    35.9523  35.9523  36.4252  36.4252  36.5690  36.5690  37.0071  37.0071
    37.2605  37.2605  37.5584  37.5584  37.9271  37.9271  38.1952  38.1952
    38.7716  38.7716  38.8249  38.8249  39.8721  39.8721  40.1322  40.1322
    40.2395  40.2395  40.7311  40.7311  41.0601  41.0601  41.5435  41.5435
    41.7398  41.7398  41.8263  41.8263  42.2737  42.2737  42.4809  42.4809
    43.1104  43.1104  43.1530  43.1530  43.3287  43.3287  43.3593  43.3593
    43.7624  43.7624  43.7945  43.7945  44.5842  44.5842  44.6800  44.6800
    45.0768  45.0768  45.2075  45.2075  45.4751  45.4751  46.2664  46.2664
    46.5271  46.5271  46.7314  46.7314  47.4046  47.4046  47.5644  47.5644
    47.6732  47.6732  47.7037  47.7037  48.2615  48.2615  48.7699  48.7699
    49.1275  49.1275  49.8070  49.8070  49.9125  49.9125  50.5525  50.5525
    50.8225  50.8225  51.0385  51.0385  51.0520  51.0520  51.4095  51.4095
    51.4154  51.4154  51.5281  51.5281  51.6244  51.6244  52.3489  52.3489
    52.8158  52.8158  53.2804  53.2804  53.3723  53.3723  53.4736  53.4736
    53.5123  53.5123  54.4092  54.4092  54.6039  54.6039  54.7776  54.7776
    55.3117  55.3117  55.4028  55.4028  55.4049  55.4049  55.8774  55.8774
    55.9247  55.9247  56.7183  56.7183  57.0102  57.0102  57.1188  57.1188
    57.7420  57.7420  57.9977  57.9977  58.0326  58.0326  58.5136  58.5136
    58.6967  58.6967  58.9367  58.9367  59.5927  59.5927  59.9371  59.9371
    60.2620  60.2620  60.2986  60.2986  60.5372  60.5372  60.5661  60.5661
    60.7526  60.7526  61.0722  61.0722  61.1178  61.1178  61.4893  61.4893
    61.7764  61.7764  61.9595  61.9595  62.3673  62.3673  62.7154  62.7154
    63.4351  63.4351  63.5507  63.5507  63.7721  63.7721  63.8620  63.8620
    64.0065  64.0065  64.0752  64.0752  64.7079  64.7079  64.7542  64.7542
    65.0305  65.0305  65.4721  65.4721  65.6431  65.6431  65.7960  65.7960
    66.1187  66.1187  66.1229  66.1229  66.6650  66.6650  66.7345  66.7345
    66.7904  66.7904  67.2245  67.2245  67.3894  67.3894  67.6015  67.6015
    67.7229  67.7229  68.0302  68.0302  68.1184  68.1184  68.2759  68.2759
    68.4209  68.4209  69.1115  69.1115  69.2033  69.2033  69.2697  69.2697
    69.4272  69.4272  69.5796  69.5796  69.9078  69.9078  70.2997  70.2997
    70.5406  70.5406  70.7402  70.7402  70.7934  70.7934  70.8726  70.8726
    71.2673  71.2673  71.4875  71.4875  71.6462  71.6462  71.6611  71.6611
    72.1766  72.1766  72.3655  72.3655  72.4606  72.4606  72.4870  72.4870
    72.5426  72.5426  72.8034  72.8034  73.3280  73.3280  73.3775  73.3775
    73.6755  73.6755  73.7096  73.7096  74.1234  74.1234  74.4669  74.4669
    74.8934  74.8934  74.9688  74.9688  75.0414  75.0414  75.2163  75.2163
    75.3873  75.3873  75.5642  75.5642  75.7266  75.7266  76.1526  76.1526
    76.4061  76.4061  76.5924  76.5924  76.7755  76.7755  77.0306  77.0306
    77.1077  77.1077  77.1809  77.1809  77.7783  77.7783  77.9568  77.9568
    78.2769  78.2769  78.4796  78.4796  78.6478  78.6481

          k = 0.0000 0.3849 0.0000 (  4008 PWs)   bands (ev):

   -66.7035 -66.7035 -42.5587 -42.5587 -40.1464 -40.1464 -40.0051 -40.0051
   -18.7205 -18.7205 -18.2068 -18.2068 -11.1824 -11.1824 -10.1312 -10.1312
    -9.8225  -9.8225  -8.7567  -8.7567  -7.5724  -7.5724  -7.2471  -7.2471
    -6.8944  -6.8944  -3.6844  -3.6844  -3.5543  -3.5543  -2.4767  -2.4767
    -1.7830  -1.7830   1.6335   1.6335   1.9261   1.9261   2.0740   2.0740
     3.0193   3.0193   3.8788   3.8788   5.4721   5.4721   6.0172   6.0172
     6.6621   6.6621   7.1834   7.1834   7.9515   7.9515   8.7368   8.7368
     9.5252   9.5252   9.6634   9.6634   9.7160   9.7160  10.3491  10.3491
    10.4996  10.4996  12.0156  12.0156  13.4933  13.4933  13.6840  13.6840
    14.6695  14.6695  14.6977  14.6977  15.0142  15.0142  15.8996  15.8996
    16.1977  16.1977  16.2382  16.2382  17.0695  17.0695  17.9866  17.9866
    18.0281  18.0281  18.0863  18.0863  19.4482  19.4482  19.5915  19.5915
    19.9236  19.9236  20.5714  20.5714  20.9450  20.9450  21.3330  21.3330
    21.6128  21.6128  21.9547  21.9547  22.5067  22.5067  22.7048  22.7048
    22.9794  22.9794  23.0287  23.0287  23.9869  23.9869  24.3479  24.3479
    24.8239  24.8239  25.1281  25.1281  25.4696  25.4696  26.0471  26.0471
    26.6655  26.6655  27.0373  27.0373  27.1649  27.1649  28.1805  28.1805
    28.4735  28.4735  28.6165  28.6165  28.7551  28.7551  29.4068  29.4068
    29.4856  29.4856  29.6031  29.6031  30.2041  30.2041  30.3169  30.3169
    30.8214  30.8214  31.7684  31.7684  32.1251  32.1251  32.4298  32.4298
    32.8763  32.8763  32.9380  32.9380  33.3832  33.3832  33.5485  33.5485
    33.7953  33.7953  34.3774  34.3774  34.5333  34.5333  35.2323  35.2323
    35.3471  35.3471  35.3954  35.3954  35.9288  35.9288  36.1124  36.1124
    36.4469  36.4469  36.5896  36.5896  37.1452  37.1452  37.3620  37.3620
    37.6277  37.6277  38.0375  38.0375  38.4466  38.4466  39.1799  39.1799
    39.3914  39.3914  39.4624  39.4624  39.6128  39.6128  40.2294  40.2294
    40.3267  40.3267  40.8678  40.8678  41.6414  41.6414  41.6871  41.6871
    41.8343  41.8343  42.1977  42.1977  42.4134  42.4134  42.4741  42.4741
    42.6352  42.6352  43.0889  43.0889  43.4355  43.4355  43.5142  43.5142
    44.0399  44.0399  44.3110  44.3110  44.3936  44.3936  44.7952  44.7952
    45.1941  45.1941  45.2248  45.2248  45.4255  45.4255  45.4679  45.4679
    45.8094  45.8094  46.0027  46.0027  47.0004  47.0004  47.2053  47.2053
    47.9572  47.9572  48.0302  48.0302  48.1691  48.1691  48.8414  48.8414
    48.9100  48.9100  49.3216  49.3216  49.3564  49.3564  49.3797  49.3797
    49.7471  49.7471  49.8698  49.8698  50.2233  50.2233  50.6372  50.6372
    50.8541  50.8541  51.0734  51.0734  51.3833  51.3833  52.2866  52.2866
    52.5515  52.5515  52.5826  52.5826  52.8733  52.8733  52.9602  52.9602
    53.3429  53.3429  53.7585  53.7585  54.3036  54.3036  54.4987  54.4987
    54.5999  54.5999  54.6244  54.6244  54.8529  54.8529  55.2315  55.2315
    55.6963  55.6963  56.0186  56.0186  56.0275  56.0275  56.0556  56.0556
    56.2592  56.2592  56.5905  56.5905  57.2366  57.2366  57.3484  57.3484
    57.5608  57.5608  57.8353  57.8353  58.6468  58.6468  59.0181  59.0181
    59.3570  59.3570  59.3948  59.3948  59.4488  59.4488  59.6569  59.6569
    59.9096  59.9096  60.1573  60.1573  60.4718  60.4718  60.8344  60.8344
    60.9954  60.9954  61.4200  61.4200  61.5196  61.5196  61.7674  61.7674
    62.2505  62.2505  62.3129  62.3129  62.3218  62.3218  62.3991  62.3991
    63.0207  63.0207  63.3112  63.3112  63.5806  63.5806  63.6607  63.6607
    63.7394  63.7394  63.7726  63.7726  64.4236  64.4236  64.4997  64.4997
    65.1516  65.1516  65.4450  65.4450  66.0065  66.0065  66.3834  66.3834
    66.4955  66.4955  66.5319  66.5319  66.7590  66.7590  66.8295  66.8295
    67.6025  67.6025  67.8512  67.8512  68.0760  68.0760  68.1636  68.1636
    68.2318  68.2318  68.5709  68.5709  68.5931  68.5931  68.8628  68.8628
    69.2605  69.2605  69.7703  69.7703  69.8958  69.8958  70.0131  70.0131
    70.3752  70.3752  70.4005  70.4005  70.4389  70.4389  70.7770  70.7770
    70.7869  70.7869  70.9992  70.9992  71.4435  71.4435  71.7443  71.7443
    71.8199  71.8199  72.1293  72.1293  72.3390  72.3390  72.5532  72.5532
    72.8271  72.8271  73.0901  73.0901  73.4217  73.4217  73.4634  73.4634
    73.6013  73.6013  73.6938  73.6938  74.2229  74.2229  74.7202  74.7202
    74.7433  74.7433  75.0469  75.0469  75.1974  75.1974  75.4396  75.4396
    75.5136  75.5136  75.6208  75.6208  76.0727  76.0727  76.6829  76.6829
    76.9016  76.9016  76.9605  76.9605  77.0623  77.0623  77.2826  77.2826
    77.6158  77.6158  77.7217  77.7217  77.8963  77.8963  77.9733  77.9733
    78.3202  78.3202  78.4705  78.4705  78.8417  78.8417

          k = 0.0000 0.5774 0.0000 (  4000 PWs)   bands (ev):

   -66.6935 -66.6935 -42.5900 -42.5900 -40.2059 -40.2059 -40.0120 -40.0120
   -18.1452 -18.1452 -17.9867 -17.9867 -11.7272 -11.7272 -10.7472 -10.7472
   -10.0057 -10.0057  -9.0790  -9.0790  -7.8260  -7.8260  -6.8608  -6.8608
    -6.5461  -6.5461  -3.6346  -3.6346  -3.1162  -3.1162  -2.0013  -2.0013
    -1.5665  -1.5665   0.3285   0.3285   2.0770   2.0770   2.4085   2.4085
     3.1910   3.1910   3.9865   3.9865   4.9796   4.9796   5.5108   5.5108
     5.8234   5.8234   6.7459   6.7459   7.3573   7.3573   9.8679   9.8679
     9.9897   9.9897  10.1970  10.1970  10.9696  10.9696  11.7358  11.7358
    11.9353  11.9353  12.5363  12.5363  12.8971  12.8971  13.8790  13.8790
    14.0772  14.0772  14.1224  14.1224  14.3527  14.3527  14.9751  14.9751
    15.3804  15.3804  15.9102  15.9102  17.4220  17.4220  17.6782  17.6782
    17.7681  17.7681  18.5349  18.5349  18.5657  18.5657  19.2526  19.2526
    19.3627  19.3627  19.4507  19.4507  19.6653  19.6653  20.6305  20.6305
    21.5600  21.5600  21.9992  21.9992  22.7811  22.7811  22.7866  22.7866
    22.9379  22.9379  23.4771  23.4771  24.1362  24.1362  24.2118  24.2118
    25.3579  25.3579  25.6252  25.6252  26.2818  26.2818  26.7805  26.7805
    26.9241  26.9241  27.3801  27.3801  27.4962  27.4962  28.6095  28.6095
    28.6565  28.6565  28.9433  28.9433  28.9751  28.9751  29.0752  29.0752
    29.7855  29.7855  30.1106  30.1106  30.9934  30.9934  31.1503  31.1503
    31.4207  31.4207  31.6942  31.6942  32.4546  32.4546  32.7016  32.7016
    32.9144  32.9144  33.0622  33.0622  33.3755  33.3755  33.7810  33.7810
    34.0597  34.0597  34.1140  34.1140  34.5945  34.5945  35.1349  35.1349
    35.1737  35.1737  35.3672  35.3672  35.9561  35.9561  36.1662  36.1662
    36.3180  36.3180  37.1240  37.1240  37.2509  37.2509  37.4934  37.4934
    37.5483  37.5483  38.0149  38.0149  38.5363  38.5363  38.5402  38.5402
    39.2522  39.2522  39.4235  39.4235  40.4484  40.4484  40.8333  40.8333
    41.0030  41.0030  41.0051  41.0051  41.3208  41.3208  41.5115  41.5115
    41.6624  41.6624  41.7234  41.7234  42.0535  42.0535  42.5508  42.5508
    42.7313  42.7313  43.2418  43.2418  43.4484  43.4484  43.7878  43.7878
    43.9645  43.9645  44.1085  44.1085  44.1189  44.1189  45.3932  45.3932
    45.5285  45.5285  46.0109  46.0109  46.3512  46.3512  46.3793  46.3793
    46.9520  46.9520  47.0875  47.0875  47.2700  47.2700  47.4490  47.4490
    47.5174  47.5174  47.6275  47.6275  47.9993  47.9993  48.2322  48.2322
    48.7713  48.7713  49.4570  49.4570  49.5160  49.5160  49.7021  49.7021
    50.0432  50.0432  50.0503  50.0503  50.1709  50.1709  50.4266  50.4266
    50.4311  50.4311  50.6792  50.6792  50.7751  50.7751  50.7835  50.7835
    51.8457  51.8457  52.1102  52.1102  52.3829  52.3829  52.6411  52.6411
    52.8686  52.8686  53.2299  53.2299  53.5245  53.5245  53.7469  53.7469
    53.7506  53.7506  53.8623  53.8623  54.7192  54.7192  54.9411  54.9411
    54.9576  54.9576  55.1561  55.1561  55.3403  55.3403  55.8326  55.8326
    56.3396  56.3396  56.5348  56.5348  56.6353  56.6353  58.0082  58.0082
    58.0891  58.0891  58.1310  58.1310  58.8352  58.8352  58.8923  58.8923
    59.1688  59.1688  59.2514  59.2514  59.4096  59.4096  59.5618  59.5618
    59.6190  59.6190  59.7170  59.7170  60.2252  60.2252  60.4030  60.4030
    60.4676  60.4676  60.8722  60.8722  61.0382  61.0382  61.0863  61.0863
    61.1195  61.1195  61.7180  61.7180  62.0851  62.0851  62.4052  62.4052
    62.6957  62.6957  63.0021  63.0021  63.0099  63.0099  63.5201  63.5201
    63.7453  63.7453  63.8112  63.8112  64.1859  64.1859  64.2193  64.2193
    64.4294  64.4294  64.9579  64.9579  65.2953  65.2953  65.3509  65.3509
    66.0185  66.0185  66.2851  66.2851  66.3565  66.3565  66.5621  66.5621
    66.7478  66.7478  66.8465  66.8465  67.2174  67.2174  67.5267  67.5267
    67.7662  67.7662  67.9370  67.9370  68.5786  68.5786  68.7429  68.7429
    68.9038  68.9038  68.9850  68.9850  69.4442  69.4442  69.4890  69.4890
    69.5218  69.5218  69.8801  69.8801  70.1264  70.1264  70.5645  70.5645
    70.7680  70.7680  70.8590  70.8590  71.0424  71.0424  71.1127  71.1127
    71.2940  71.2940  71.5929  71.5929  71.6034  71.6034  71.9576  71.9576
    72.2810  72.2810  72.9287  72.9287  73.3008  73.3008  73.4181  73.4181
    73.5343  73.5343  73.9981  73.9981  74.0488  74.0488  74.1919  74.1919
    74.2733  74.2733  74.4392  74.4392  74.9600  74.9600  75.0919  75.0919
    75.5461  75.5461  76.1204  76.1204  76.2010  76.2010  76.4102  76.4102
    76.6426  76.6426  77.5522  77.5522  77.6918  77.6918  77.7912  77.7912
    78.0586  78.0586  78.0673  78.0673  78.1160  78.1160  78.5760  78.5760
    78.8161  78.8161  78.9650  78.9650  79.5208  79.5251

          k = 0.0000 0.7698 0.0000 (  4008 PWs)   bands (ev):

   -66.7035 -66.7035 -42.5587 -42.5587 -40.1464 -40.1464 -40.0051 -40.0051
   -18.7205 -18.7205 -18.2068 -18.2068 -11.1824 -11.1824 -10.1312 -10.1312
    -9.8225  -9.8225  -8.7567  -8.7567  -7.5724  -7.5724  -7.2471  -7.2471
    -6.8944  -6.8944  -3.6844  -3.6844  -3.5543  -3.5543  -2.4767  -2.4767
    -1.7830  -1.7830   1.6335   1.6335   1.9261   1.9261   2.0740   2.0740
     3.0193   3.0193   3.8788   3.8788   5.4721   5.4721   6.0172   6.0172
     6.6621   6.6621   7.1834   7.1834   7.9515   7.9515   8.7368   8.7368
     9.5252   9.5252   9.6634   9.6634   9.7160   9.7160  10.3491  10.3491
    10.4996  10.4996  12.0156  12.0156  13.4933  13.4933  13.6840  13.6840
    14.6695  14.6695  14.6977  14.6977  15.0142  15.0142  15.8996  15.8996
    16.1977  16.1977  16.2382  16.2382  17.0695  17.0695  17.9866  17.9866
    18.0281  18.0281  18.0863  18.0863  19.4482  19.4482  19.5915  19.5915
    19.9236  19.9236  20.5714  20.5714  20.9450  20.9450  21.3330  21.3330
    21.6128  21.6128  21.9547  21.9547  22.5067  22.5067  22.7048  22.7048
    22.9794  22.9794  23.0287  23.0287  23.9869  23.9869  24.3479  24.3479
    24.8239  24.8239  25.1281  25.1281  25.4696  25.4696  26.0471  26.0471
    26.6655  26.6655  27.0373  27.0373  27.1649  27.1649  28.1805  28.1805
    28.4735  28.4735  28.6165  28.6165  28.7551  28.7551  29.4068  29.4068
    29.4856  29.4856  29.6031  29.6031  30.2041  30.2041  30.3169  30.3169
    30.8214  30.8214  31.7684  31.7684  32.1251  32.1251  32.4298  32.4298
    32.8763  32.8763  32.9380  32.9380  33.3832  33.3832  33.5485  33.5485
    33.7953  33.7953  34.3774  34.3774  34.5333  34.5333  35.2323  35.2323
    35.3471  35.3471  35.3954  35.3954  35.9288  35.9288  36.1124  36.1124
    36.4469  36.4469  36.5896  36.5896  37.1452  37.1452  37.3620  37.3620
    37.6277  37.6277  38.0375  38.0375  38.4466  38.4466  39.1799  39.1799
    39.3914  39.3914  39.4624  39.4624  39.6128  39.6128  40.2294  40.2294
    40.3267  40.3267  40.8678  40.8678  41.6414  41.6414  41.6871  41.6871
    41.8343  41.8343  42.1977  42.1977  42.4134  42.4134  42.4741  42.4741
    42.6352  42.6352  43.0889  43.0889  43.4355  43.4355  43.5142  43.5142
    44.0399  44.0399  44.3110  44.3110  44.3936  44.3936  44.7952  44.7952
    45.1941  45.1941  45.2248  45.2248  45.4255  45.4255  45.4679  45.4679
    45.8094  45.8094  46.0027  46.0027  47.0004  47.0004  47.2053  47.2053
    47.9572  47.9572  48.0302  48.0302  48.1691  48.1691  48.8414  48.8414
    48.9100  48.9100  49.3216  49.3216  49.3564  49.3564  49.3797  49.3797
    49.7471  49.7471  49.8698  49.8698  50.2233  50.2233  50.6372  50.6372
    50.8541  50.8541  51.0734  51.0734  51.3833  51.3833  52.2866  52.2866
    52.5515  52.5515  52.5826  52.5826  52.8733  52.8733  52.9602  52.9602
    53.3429  53.3429  53.7585  53.7585  54.3036  54.3036  54.4987  54.4987
    54.5999  54.5999  54.6244  54.6244  54.8529  54.8529  55.2315  55.2315
    55.6963  55.6963  56.0186  56.0186  56.0275  56.0275  56.0556  56.0556
    56.2592  56.2592  56.5905  56.5905  57.2366  57.2366  57.3484  57.3484
    57.5608  57.5608  57.8353  57.8353  58.6468  58.6468  59.0181  59.0181
    59.3570  59.3570  59.3948  59.3948  59.4488  59.4488  59.6569  59.6569
    59.9096  59.9096  60.1573  60.1573  60.4718  60.4718  60.8344  60.8344
    60.9954  60.9954  61.4200  61.4200  61.5196  61.5196  61.7674  61.7674
    62.2505  62.2505  62.3129  62.3129  62.3218  62.3218  62.3991  62.3991
    63.0207  63.0207  63.3112  63.3112  63.5806  63.5806  63.6607  63.6607
    63.7394  63.7394  63.7726  63.7726  64.4236  64.4236  64.4997  64.4997
    65.1516  65.1516  65.4450  65.4450  66.0065  66.0065  66.3834  66.3834
    66.4955  66.4955  66.5319  66.5319  66.7590  66.7590  66.8295  66.8295
    67.6025  67.6025  67.8512  67.8512  68.0760  68.0760  68.1636  68.1636
    68.2318  68.2318  68.5709  68.5709  68.5931  68.5931  68.8628  68.8628
    69.2605  69.2605  69.7703  69.7703  69.8958  69.8958  70.0131  70.0131
    70.3752  70.3752  70.4005  70.4005  70.4389  70.4389  70.7770  70.7770
    70.7869  70.7869  70.9992  70.9992  71.4435  71.4435  71.7443  71.7443
    71.8199  71.8199  72.1293  72.1293  72.3390  72.3390  72.5532  72.5532
    72.8271  72.8271  73.0901  73.0901  73.4217  73.4217  73.4634  73.4634
    73.6013  73.6013  73.6938  73.6938  74.2229  74.2229  74.7202  74.7202
    74.7433  74.7433  75.0469  75.0469  75.1974  75.1974  75.4396  75.4396
    75.5136  75.5136  75.6208  75.6208  76.0727  76.0727  76.6829  76.6829
    76.9016  76.9016  76.9605  76.9605  77.0623  77.0623  77.2826  77.2826
    77.6158  77.6158  77.7217  77.7217  77.8963  77.8963  77.9733  77.9733
    78.3202  78.3202  78.4705  78.4705  78.8417  78.8417

          k = 0.0000 0.9623 0.0000 (  3983 PWs)   bands (ev):

   -66.7235 -66.7235 -42.5004 -42.5004 -40.0614 -40.0614 -39.9479 -39.9479
   -19.6515 -19.6515 -18.5829 -18.5829 -11.1459 -11.1459  -9.2768  -9.2768
    -8.8516  -8.8516  -8.0999  -8.0999  -7.9443  -7.9443  -7.0043  -7.0043
    -6.2296  -6.2296  -3.6121  -3.6121  -3.3007  -3.3007  -3.2510  -3.2510
    -2.5088  -2.5088   0.7588   0.7588   1.0202   1.0202   2.1509   2.1509
     4.0394   4.0394   4.2999   4.2999   5.5542   5.5542   5.9125   5.9125
     6.3331   6.3331   6.7178   6.7178   6.8470   6.8470   7.4195   7.4195
     8.7736   8.7736   9.4341   9.4341   9.8578   9.8578  11.1083  11.1083
    11.9678  11.9678  13.0256  13.0256  13.7300  13.7300  13.9967  13.9967
    14.4700  14.4700  14.9584  14.9584  15.6238  15.6238  16.0918  16.0918
    16.8841  16.8841  16.9101  16.9101  17.1724  17.1724  17.6822  17.6822
    18.4750  18.4750  18.5418  18.5418  19.1970  19.1970  19.2681  19.2681
    19.4409  19.4409  20.0885  20.0885  21.2684  21.2684  21.5456  21.5456
    22.1163  22.1163  22.3229  22.3229  23.3792  23.3792  23.4935  23.4935
    23.5917  23.5917  24.1017  24.1017  24.4893  24.4893  24.9447  24.9447
    24.9636  24.9636  25.3422  25.3422  25.5854  25.5854  26.2934  26.2934
    26.2999  26.2999  26.4747  26.4747  27.1379  27.1379  27.8629  27.8629
    27.9200  27.9200  28.1130  28.1130  28.4054  28.4054  28.4325  28.4325
    28.6188  28.6188  29.0332  29.0332  29.7209  29.7209  30.2270  30.2270
    30.4345  30.4345  30.9030  30.9030  31.1358  31.1358  31.3600  31.3600
    31.7311  31.7311  32.3386  32.3386  32.5800  32.5800  32.7654  32.7654
    32.9281  32.9281  33.1232  33.1232  33.2615  33.2615  34.3866  34.3866
    34.4231  34.4231  34.7943  34.7943  35.1625  35.1625  35.5493  35.5493
    35.9523  35.9523  36.4252  36.4252  36.5690  36.5690  37.0071  37.0071
    37.2605  37.2605  37.5584  37.5584  37.9271  37.9271  38.1952  38.1952
    38.7716  38.7716  38.8249  38.8249  39.8721  39.8721  40.1322  40.1322
    40.2395  40.2395  40.7311  40.7311  41.0601  41.0601  41.5435  41.5435
    41.7398  41.7398  41.8263  41.8263  42.2737  42.2737  42.4809  42.4809
    43.1104  43.1104  43.1530  43.1530  43.3287  43.3287  43.3593  43.3593
    43.7624  43.7624  43.7945  43.7945  44.5842  44.5842  44.6800  44.6800
    45.0768  45.0768  45.2075  45.2075  45.4751  45.4751  46.2664  46.2664
    46.5271  46.5271  46.7314  46.7314  47.4046  47.4046  47.5644  47.5644
    47.6732  47.6732  47.7037  47.7037  48.2615  48.2615  48.7699  48.7699
    49.1275  49.1275  49.8070  49.8070  49.9125  49.9125  50.5525  50.5525
    50.8225  50.8225  51.0385  51.0385  51.0520  51.0520  51.4095  51.4095
    51.4154  51.4154  51.5281  51.5281  51.6244  51.6244  52.3489  52.3489
    52.8158  52.8158  53.2804  53.2804  53.3723  53.3723  53.4736  53.4736
    53.5123  53.5123  54.4092  54.4092  54.6039  54.6039  54.7776  54.7776
    55.3117  55.3117  55.4028  55.4028  55.4049  55.4049  55.8774  55.8774
    55.9247  55.9247  56.7183  56.7183  57.0102  57.0102  57.1188  57.1188
    57.7420  57.7420  57.9977  57.9977  58.0326  58.0326  58.5136  58.5136
    58.6967  58.6967  58.9367  58.9367  59.5927  59.5927  59.9371  59.9371
    60.2620  60.2620  60.2986  60.2986  60.5372  60.5372  60.5661  60.5661
    60.7526  60.7526  61.0722  61.0722  61.1178  61.1178  61.4893  61.4893
    61.7764  61.7764  61.9595  61.9595  62.3673  62.3673  62.7154  62.7154
    63.4351  63.4351  63.5507  63.5507  63.7721  63.7721  63.8620  63.8620
    64.0065  64.0065  64.0752  64.0752  64.7079  64.7079  64.7542  64.7542
    65.0305  65.0305  65.4721  65.4721  65.6431  65.6431  65.7960  65.7960
    66.1187  66.1187  66.1229  66.1229  66.6650  66.6650  66.7345  66.7345
    66.7904  66.7904  67.2245  67.2245  67.3894  67.3894  67.6015  67.6015
    67.7229  67.7229  68.0302  68.0302  68.1184  68.1184  68.2759  68.2759
    68.4209  68.4209  69.1115  69.1115  69.2033  69.2033  69.2697  69.2697
    69.4272  69.4272  69.5796  69.5796  69.9078  69.9078  70.2997  70.2997
    70.5406  70.5406  70.7402  70.7402  70.7934  70.7934  70.8726  70.8726
    71.2673  71.2673  71.4875  71.4875  71.6462  71.6462  71.6611  71.6611
    72.1766  72.1766  72.3655  72.3655  72.4606  72.4606  72.4870  72.4870
    72.5426  72.5426  72.8034  72.8034  73.3280  73.3280  73.3775  73.3775
    73.6755  73.6755  73.7096  73.7096  74.1234  74.1234  74.4669  74.4669
    74.8934  74.8934  74.9688  74.9688  75.0414  75.0414  75.2163  75.2163
    75.3873  75.3873  75.5642  75.5642  75.7266  75.7266  76.1526  76.1526
    76.4061  76.4061  76.5924  76.5924  76.7755  76.7755  77.0306  77.0306
    77.1077  77.1077  77.1809  77.1809  77.7783  77.7783  77.9568  77.9568
    78.2769  78.2769  78.4796  78.4796  78.6478  78.6478

          k = 0.1667 0.2887 0.0000 (  4006 PWs)   bands (ev):

   -66.7085 -66.7085 -42.5469 -42.5390 -40.1097 -40.1060 -40.0141 -40.0066
   -18.9856 -18.9695 -18.3052 -18.3040 -10.8770 -10.8537  -9.7428  -9.7333
    -9.6181  -9.5882  -9.1331  -9.1044  -7.9063  -7.8306  -6.9867  -6.9517
    -6.7440  -6.6718  -4.0162  -3.9466  -3.4224  -3.4048  -3.2243  -3.1672
    -1.7186  -1.6796   1.6369   1.6526   1.8674   1.8686   3.0917   3.1069
     3.8978   3.8981   4.2220   4.2554   5.5169   5.5525   5.6255   5.6382
     5.9110   5.9937   6.5816   6.6067   6.7090   6.7263   8.2576   8.2581
     8.9693   8.9762   9.1810   9.1871  10.2650  10.3083  11.3417  11.3553
    12.1110  12.1214  12.4220  12.4285  12.5151  12.5154  12.9187  12.9268
    13.8785  13.8863  14.4732  14.4767  15.7551  15.7636  16.5581  16.5807
    16.5947  16.5967  16.9448  16.9484  17.0010  17.0330  17.4479  17.4632
    18.1383  18.1398  18.8150  18.8458  19.0944  19.0986  19.5453  19.5494
    20.1724  20.1725  20.2682  20.2754  20.6345  20.6382  21.5087  21.5296
    21.7694  21.7725  22.1724  22.1769  22.2164  22.2624  22.4534  22.4630
    23.0811  23.0838  23.6628  23.6737  24.4278  24.4348  24.4791  24.5037
    25.1427  25.1583  25.5646  25.5687  25.9162  25.9252  26.4453  26.4661
    26.5384  26.5393  26.7221  26.7267  27.1188  27.1196  27.7655  27.7820
    27.8852  27.8864  28.3339  28.3468  28.7031  28.7033  28.9948  28.9958
    29.1586  29.1653  30.1351  30.1901  30.2737  30.2759  30.3046  30.3366
    30.5841  30.5887  30.7904  30.7908  31.7158  31.7201  31.8152  31.8432
    32.2312  32.2438  32.2551  32.2586  33.1876  33.1934  33.3730  33.3971
    33.4380  33.4385  34.0877  34.1150  34.6251  34.6319  34.9212  34.9339
    34.9667  34.9736  35.3044  35.3109  36.2002  36.2049  36.2056  36.2079
    36.2689  36.2707  36.5563  36.5621  36.9766  36.9831  37.3912  37.4279
    37.9436  37.9581  38.2638  38.2731  38.3762  38.3871  38.8300  38.8307
    38.9937  39.0167  39.4078  39.4189  39.5148  39.5326  39.9063  39.9171
    40.4241  40.4246  40.7352  40.7372  41.5473  41.5586  41.7346  41.7415
    41.9559  41.9566  42.0616  42.0626  42.1631  42.1659  42.2872  42.2905
    42.3918  42.3930  42.4945  42.5065  43.3867  43.4043  43.6160  43.6219
    44.2365  44.2393  44.5484  44.5546  44.7733  44.7761  45.0532  45.0596
    45.3667  45.3741  45.7097  45.7136  45.7758  45.7783  46.3740  46.3828
    46.5726  46.5812  46.7283  46.7303  47.2168  47.2172  47.3798  47.3839
    47.4274  47.4314  47.6477  47.6492  48.2136  48.2202  48.2225  48.2238
    48.6090  48.6163  48.6745  48.6772  49.0688  49.0821  49.5905  49.5907
    49.7157  49.7160  50.2373  50.2378  50.2812  50.2846  50.7248  50.7331
    50.9801  50.9897  51.1912  51.2005  51.5008  51.5074  52.1130  52.1144
    52.1527  52.1734  52.5501  52.5585  53.0274  53.0289  53.3216  53.3309
    53.4015  53.4028  53.7311  53.7330  54.1935  54.1959  54.5863  54.5871
    55.0894  55.0910  55.2115  55.2400  55.3005  55.3043  55.4464  55.4522
    55.9965  55.9971  56.2749  56.2774  56.4074  56.4096  56.7950  56.8152
    56.8544  56.8575  57.1915  57.1925  57.5123  57.5152  57.8843  57.8867
    57.9173  57.9267  58.1036  58.1074  58.3178  58.3406  58.6638  58.6655
    58.9396  58.9404  59.2250  59.2253  59.3401  59.3433  59.6401  59.6406
    60.1173  60.1222  60.3272  60.3299  60.5709  60.5774  60.7555  60.7632
    61.0014  61.0083  61.2471  61.2557  61.5172  61.5197  61.6943  61.6950
    62.7042  62.7070  62.7286  62.7361  62.8898  62.8901  63.0190  63.0245
    63.6807  63.6973  63.7092  63.7132  63.7415  63.7454  64.1075  64.1228
    64.6227  64.6475  64.8142  64.8213  64.8956  64.8960  65.4311  65.4325
    65.5012  65.5083  65.8992  65.9004  65.9316  65.9476  66.1030  66.1033
    66.4491  66.4497  66.6731  66.6902  66.8294  66.8303  66.8769  66.8799
    67.1236  67.1250  67.3444  67.3940  67.4504  67.4527  67.8305  67.8353
    67.9146  67.9150  68.2589  68.2616  68.3247  68.3258  68.8891  68.8998
    69.3797  69.3966  69.4446  69.4453  69.6224  69.6287  70.0264  70.0265
    70.0954  70.0962  70.2042  70.2168  70.3523  70.3698  70.3982  70.4244
    70.9946  71.0191  71.0601  71.0791  71.6328  71.6329  71.6661  71.6697
    71.7832  71.8629  72.0562  72.1061  72.5901  72.5914  72.6728  72.6756
    73.1145  73.1655  73.3437  73.3541  73.6085  73.6344  73.6630  73.7270
    74.0731  74.0779  74.5552  74.5599  74.5960  74.6093  75.0556  75.0582
    75.2500  75.3218  75.5248  75.5253  75.7124  75.7387  75.8015  75.8112
    75.9908  76.0486  76.1931  76.1936  76.6105  76.6133  76.9102  76.9504
    76.9732  76.9957  77.1394  77.1400  77.2564  77.2762  77.3675  77.3839
    77.5929  77.5941  77.6142  77.6145  77.8567  77.8723  78.3070  78.3471
    78.6600  78.6625  78.7516  78.7623  78.8088  78.8281

          k = 0.1667 0.4811 0.0000 (  4030 PWs)   bands (ev):

   -66.6935 -66.6935 -42.5954 -42.5793 -40.1926 -40.1702 -40.0414 -40.0412
   -18.1868 -18.1469 -17.9708 -17.9681 -11.2641 -11.2522 -10.8449 -10.8351
    -9.7590  -9.7551  -9.1529  -9.1351  -8.3058  -8.2412  -7.6549  -7.6441
    -6.4602  -6.3515  -3.6890  -3.6623  -3.1370  -3.0213  -2.5408  -2.5377
    -1.4518  -1.4249   1.1811   1.2066   2.8671   2.8845   2.9393   2.9454
     3.8453   3.8665   3.9785   4.0293   4.9533   4.9703   5.4051   5.4066
     6.2182   6.2425   7.2460   7.2558   7.4644   7.4880   8.4418   8.4429
     9.0230   9.0237   9.1502   9.1525  10.2694  10.2711  10.4485  10.4541
    11.1204  11.1232  12.1750  12.1778  12.5949  12.6162  13.5680  13.5727
    13.9450  13.9561  14.4230  14.4254  15.1492  15.1960  15.4732  15.4868
    16.0876  16.1012  17.0059  17.0114  17.0513  17.0694  17.6769  17.6861
    17.7807  17.7814  18.4827  18.4863  19.0197  19.0220  19.5346  19.5358
    20.4554  20.4711  20.7149  20.7193  21.1346  21.1359  21.4193  21.4220
    21.6790  21.6831  21.8408  21.8454  22.4090  22.4106  22.8969  22.8989
    23.1141  23.1224  23.4696  23.4726  23.9978  24.0123  24.9153  24.9238
    24.9328  24.9378  25.2447  25.2562  25.6548  25.6579  26.3732  26.3735
    26.5982  26.6019  27.0528  27.0540  27.2148  27.2216  27.6503  27.6744
    28.0159  28.0203  28.2354  28.2360  28.7728  28.8583  29.1038  29.1055
    29.6333  29.6339  30.0899  30.0927  30.5154  30.5170  30.7913  30.8065
    30.8259  30.8305  31.3179  31.3242  32.0437  32.0489  32.2634  32.2820
    32.7765  32.7800  33.2359  33.2637  33.4855  33.4942  33.7423  33.7426
    34.2955  34.2961  34.7020  34.7397  35.0049  35.0083  35.0188  35.0195
    35.4442  35.4453  35.9495  35.9540  35.9856  35.9860  36.2425  36.2578
    36.8012  36.8033  36.9801  36.9807  37.2211  37.2341  37.8091  37.8113
    38.0171  38.0182  38.0655  38.0660  38.3355  38.3521  38.9217  38.9252
    39.2346  39.2394  39.8045  39.8045  39.9908  40.0028  40.2326  40.2340
    40.3588  40.3594  40.9731  40.9765  40.9820  40.9885  41.6411  41.6431
    41.7803  41.7825  41.8075  41.8077  42.5639  42.5684  42.5864  42.6085
    42.6874  42.7033  43.1914  43.1944  43.3059  43.3078  43.9289  43.9294
    43.9786  43.9840  44.6253  44.6343  44.8620  44.8627  45.1196  45.1222
    45.4740  45.4760  45.5384  45.5390  45.9239  45.9348  46.0652  46.0656
    46.4833  46.4849  46.7411  46.7434  46.9964  47.0020  47.0620  47.0629
    47.7182  47.7187  48.0891  48.0900  48.1731  48.1738  48.5044  48.5099
    48.9166  48.9190  49.1617  49.1620  49.2618  49.2731  49.3584  49.3663
    50.2493  50.2546  50.3952  50.3960  50.6216  50.6314  50.6355  50.6360
    51.3902  51.3924  51.5517  51.5556  51.5996  51.6026  52.0345  52.0371
    52.0829  52.0851  52.4998  52.5024  52.6792  52.6809  52.9352  52.9354
    53.4466  53.4559  53.5401  53.5402  53.8295  53.8580  54.1681  54.1705
    54.1973  54.2007  54.3834  54.3896  54.8541  54.8555  54.9495  54.9497
    55.2336  55.2489  55.5226  55.5234  55.5975  55.5984  55.9679  55.9690
    56.1729  56.1740  56.2348  56.2368  57.0381  57.0408  57.1934  57.2052
    57.6181  57.6214  57.6713  57.6876  57.7036  57.7073  58.1126  58.1256
    58.2276  58.2309  58.2933  58.3108  58.8366  58.8408  59.0044  59.0077
    59.0539  59.0616  59.4715  59.4866  59.5581  59.5583  59.9719  59.9735
    60.1915  60.2003  60.6293  60.6309  60.6593  60.6620  60.7683  60.7687
    60.9217  60.9241  61.3316  61.3316  61.8928  61.9005  62.2115  62.2186
    62.5494  62.5518  62.7417  62.7425  62.9904  62.9943  63.3681  63.3746
    63.4218  63.4267  63.8878  63.8895  64.1207  64.1418  64.2304  64.2435
    64.2743  64.2776  64.5157  64.5197  65.0144  65.0159  65.2443  65.2461
    65.5659  65.5662  66.0067  66.0102  66.1501  66.1563  66.3679  66.3711
    66.6450  66.6461  66.7926  66.7926  66.9303  66.9458  67.3253  67.3473
    67.9153  67.9167  68.0185  68.0281  68.4231  68.4293  68.8785  68.8821
    69.0131  69.0274  69.2394  69.2648  69.5205  69.5212  69.6864  69.6891
    69.7638  69.7712  69.9653  69.9656  69.9972  70.0015  70.5523  70.5635
    70.6486  70.6494  70.9275  70.9463  71.3471  71.3510  71.3668  71.3730
    71.9525  71.9596  72.1911  72.1942  72.3047  72.3155  72.8299  72.8352
    72.9588  72.9762  73.2014  73.2172  73.4452  73.4513  73.6815  73.6884
    74.0529  74.0576  74.1731  74.1940  74.2512  74.2630  74.4276  74.4671
    74.9587  74.9606  75.1576  75.2057  75.3032  75.3055  75.6302  75.6465
    75.7708  75.7738  75.8719  75.8722  76.2030  76.2067  76.3153  76.3449
    76.6540  76.6678  76.7232  76.7341  76.9780  76.9829  77.1133  77.1443
    77.5483  77.5552  77.8607  77.8668  77.9294  77.9323  78.2144  78.2390
    78.5251  78.5343  78.5770  78.5830  79.0710  79.0765

          k = 0.1667 0.6736 0.0000 (  4030 PWs)   bands (ev):

   -66.6935 -66.6935 -42.5954 -42.5793 -40.1926 -40.1702 -40.0414 -40.0412
   -18.1868 -18.1469 -17.9708 -17.9681 -11.2641 -11.2522 -10.8449 -10.8351
    -9.7590  -9.7551  -9.1529  -9.1351  -8.3058  -8.2412  -7.6549  -7.6441
    -6.4602  -6.3515  -3.6890  -3.6623  -3.1370  -3.0213  -2.5408  -2.5377
    -1.4518  -1.4249   1.1811   1.2066   2.8671   2.8845   2.9393   2.9454
     3.8453   3.8665   3.9785   4.0293   4.9533   4.9703   5.4051   5.4066
     6.2182   6.2425   7.2460   7.2558   7.4644   7.4880   8.4418   8.4429
     9.0230   9.0237   9.1502   9.1525  10.2694  10.2711  10.4485  10.4541
    11.1204  11.1232  12.1750  12.1778  12.5949  12.6162  13.5680  13.5727
    13.9450  13.9561  14.4230  14.4254  15.1492  15.1960  15.4732  15.4868
    16.0876  16.1012  17.0059  17.0114  17.0513  17.0694  17.6769  17.6861
    17.7807  17.7814  18.4827  18.4863  19.0197  19.0220  19.5346  19.5358
    20.4554  20.4711  20.7149  20.7193  21.1346  21.1359  21.4193  21.4220
    21.6790  21.6831  21.8408  21.8454  22.4090  22.4106  22.8969  22.8989
    23.1141  23.1224  23.4696  23.4726  23.9978  24.0123  24.9153  24.9238
    24.9328  24.9378  25.2447  25.2562  25.6548  25.6579  26.3732  26.3735
    26.5982  26.6019  27.0528  27.0540  27.2148  27.2216  27.6503  27.6744
    28.0159  28.0203  28.2354  28.2360  28.7728  28.8583  29.1038  29.1055
    29.6333  29.6339  30.0899  30.0927  30.5154  30.5170  30.7913  30.8065
    30.8259  30.8305  31.3179  31.3242  32.0437  32.0489  32.2634  32.2820
    32.7765  32.7800  33.2359  33.2637  33.4855  33.4942  33.7423  33.7426
    34.2955  34.2961  34.7020  34.7397  35.0049  35.0083  35.0188  35.0195
    35.4442  35.4453  35.9495  35.9540  35.9856  35.9860  36.2425  36.2578
    36.8012  36.8033  36.9801  36.9807  37.2211  37.2341  37.8091  37.8113
    38.0171  38.0182  38.0655  38.0660  38.3355  38.3521  38.9217  38.9252
    39.2346  39.2394  39.8045  39.8045  39.9908  40.0028  40.2326  40.2340
    40.3588  40.3594  40.9731  40.9765  40.9820  40.9885  41.6411  41.6431
    41.7803  41.7825  41.8075  41.8077  42.5639  42.5684  42.5864  42.6085
    42.6874  42.7033  43.1914  43.1944  43.3059  43.3078  43.9289  43.9294
    43.9786  43.9840  44.6253  44.6343  44.8620  44.8627  45.1196  45.1222
    45.4740  45.4760  45.5384  45.5390  45.9239  45.9348  46.0652  46.0656
    46.4833  46.4849  46.7411  46.7434  46.9964  47.0020  47.0620  47.0629
    47.7182  47.7187  48.0891  48.0900  48.1731  48.1738  48.5044  48.5099
    48.9166  48.9190  49.1617  49.1620  49.2618  49.2731  49.3584  49.3663
    50.2493  50.2546  50.3952  50.3960  50.6216  50.6314  50.6355  50.6360
    51.3902  51.3924  51.5517  51.5556  51.5996  51.6026  52.0345  52.0371
    52.0829  52.0851  52.4998  52.5024  52.6792  52.6809  52.9352  52.9354
    53.4466  53.4559  53.5401  53.5402  53.8295  53.8580  54.1681  54.1705
    54.1973  54.2007  54.3834  54.3896  54.8541  54.8555  54.9495  54.9497
    55.2336  55.2489  55.5226  55.5234  55.5975  55.5984  55.9679  55.9690
    56.1729  56.1740  56.2348  56.2368  57.0381  57.0408  57.1934  57.2052
    57.6181  57.6214  57.6713  57.6876  57.7036  57.7073  58.1126  58.1256
    58.2276  58.2309  58.2933  58.3108  58.8366  58.8408  59.0044  59.0077
    59.0539  59.0616  59.4715  59.4866  59.5581  59.5583  59.9719  59.9735
    60.1915  60.2003  60.6293  60.6309  60.6593  60.6620  60.7683  60.7687
    60.9217  60.9241  61.3316  61.3316  61.8928  61.9005  62.2115  62.2186
    62.5494  62.5518  62.7417  62.7425  62.9904  62.9943  63.3681  63.3746
    63.4218  63.4267  63.8878  63.8895  64.1207  64.1418  64.2304  64.2435
    64.2743  64.2776  64.5157  64.5197  65.0144  65.0159  65.2443  65.2461
    65.5659  65.5662  66.0067  66.0102  66.1501  66.1563  66.3679  66.3711
    66.6450  66.6461  66.7926  66.7926  66.9303  66.9458  67.3253  67.3473
    67.9153  67.9167  68.0185  68.0281  68.4231  68.4293  68.8785  68.8821
    69.0131  69.0274  69.2394  69.2648  69.5205  69.5212  69.6864  69.6891
    69.7638  69.7712  69.9653  69.9656  69.9972  70.0015  70.5523  70.5635
    70.6486  70.6494  70.9275  70.9463  71.3471  71.3510  71.3668  71.3730
    71.9525  71.9596  72.1911  72.1942  72.3047  72.3155  72.8299  72.8352
    72.9588  72.9762  73.2014  73.2172  73.4452  73.4513  73.6815  73.6884
    74.0529  74.0576  74.1731  74.1940  74.2512  74.2630  74.4276  74.4671
    74.9587  74.9606  75.1576  75.2057  75.3032  75.3055  75.6302  75.6465
    75.7708  75.7738  75.8719  75.8722  76.2030  76.2067  76.3153  76.3449
    76.6540  76.6678  76.7232  76.7341  76.9780  76.9829  77.1133  77.1443
    77.5483  77.5552  77.8607  77.8668  77.9294  77.9323  78.2144  78.2390
    78.5251  78.5343  78.5770  78.5830  79.0710  79.0765

          k = 0.3333 0.5774 0.0000 (  4050 PWs)   bands (ev):

   -66.6885 -66.6885 -42.6123 -42.5880 -40.2056 -40.1558 -40.0880 -40.0722
   -17.9037 -17.8398 -17.8243 -17.8212 -11.3691 -11.3613 -10.5520 -10.5164
   -10.0392  -9.9808  -9.4835  -9.4653  -8.8386  -8.7883  -8.1140  -8.0906
    -6.0030  -5.8551  -4.1924  -4.1894  -2.8638  -2.8321  -2.4108  -2.2693
    -1.0303  -0.9476   1.3524   1.4742   1.7718   1.7747   3.8061   3.8142
     4.6854   4.7206   5.4518   5.4611   5.9075   5.9281   6.0419   6.0723
     6.3408   6.3423   6.5744   6.6021   7.2338   7.2555   8.2415   8.2596
     8.2847   8.2905   8.3199   8.3240   8.6676   8.6701   9.6784   9.6900
    10.6579  10.6587  11.5603  11.5915  12.6878  12.7131  12.7206  12.8438
    13.9585  13.9842  14.0888  14.0911  14.3059  14.3115  15.1270  15.1379
    15.5097  15.5247  17.2699  17.2834  18.9728  18.9733  19.2021  19.2085
    19.4343  19.4371  19.7921  19.8156  19.8399  19.8615  19.9057  19.9232
    19.9251  19.9265  20.7340  20.7425  20.7750  20.7876  21.2272  21.2304
    22.0784  22.1244  22.4963  22.5068  22.5254  22.5306  22.9924  23.0070
    23.2625  23.2647  23.2906  23.3006  23.3656  23.3690  24.6410  24.6466
    24.7880  24.7887  25.6702  25.6715  25.8514  25.8597  26.2960  26.2994
    26.8403  26.8430  26.8897  26.8954  27.2809  27.2810  27.8310  27.8341
    27.8341  27.8423  27.9697  28.0187  28.0435  28.0440  28.0463  28.0617
    29.8641  29.9013  29.9067  29.9339  30.4315  30.4377  30.6374  30.6500
    30.9585  30.9673  31.7714  31.7745  32.0252  32.0313  32.2575  32.3103
    32.5667  32.5690  32.8883  32.8924  32.8928  32.9197  32.9464  32.9487
    33.4673  33.4688  34.0641  34.0809  34.1538  34.1964  34.7326  34.7332
    35.1296  35.1325  35.6549  35.6657  35.9888  35.9918  36.1365  36.1365
    36.3195  36.3319  37.0186  37.0434  37.4902  37.4968  37.5620  37.5694
    38.1040  38.1065  38.5059  38.5065  39.2738  39.2979  39.6062  39.6089
    39.6335  39.6441  39.9478  39.9501  40.6481  40.6585  40.6653  40.6768
    40.7460  40.7467  40.9379  40.9402  41.2335  41.2538  41.6357  41.6371
    42.1458  42.1491  42.6005  42.6027  42.8384  42.8390  43.7794  43.8007
    44.0897  44.0999  44.1041  44.1804  44.3414  44.3437  44.8274  44.8311
    44.9309  44.9333  45.0351  45.0592  45.2164  45.2176  45.5203  45.5206
    45.5887  45.5911  45.9541  45.9667  46.3488  46.3573  46.4289  46.4293
    46.6538  46.6573  46.6694  46.6711  46.6769  46.6795  46.8221  46.8247
    47.5541  47.5546  47.9999  48.0038  48.2563  48.2574  48.2654  48.2656
    48.6443  48.6443  48.9134  48.9190  49.1957  49.2827  49.2846  49.2868
    50.0428  50.0450  50.0655  50.0700  50.1490  50.1857  50.3604  50.3626
    50.8337  50.8356  51.1008  51.1009  51.3166  51.3419  51.6722  51.6829
    51.9166  51.9205  52.0443  52.0448  52.4807  52.4816  52.6073  52.6073
    52.6816  52.6818  52.7559  52.7571  52.8657  52.8695  52.8920  52.9019
    53.1530  53.1531  53.7799  53.7965  54.2261  54.2268  54.5633  54.6287
    54.8408  54.8418  55.3380  55.3383  56.0247  56.1472  56.3048  56.3269
    56.3540  56.3541  56.4109  56.4128  56.9239  56.9275  57.0201  57.0229
    57.1610  57.1638  57.3169  57.3244  57.4472  57.4493  57.8897  57.8959
    58.5608  58.5635  59.0260  59.0297  59.6095  59.6715  59.6751  59.6874
    59.7222  59.7224  59.8360  59.8576  59.8822  59.8860  59.9606  59.9645
    59.9724  60.0253  60.6438  60.6488  60.9057  60.9228  61.0918  61.0918
    61.2720  61.2815  61.5133  61.5143  61.5365  61.5649  61.8420  61.8460
    61.9909  62.0228  62.2249  62.2387  62.4958  62.5155  62.5787  62.5919
    62.7384  62.8131  63.1467  63.1473  63.4972  63.5124  63.5748  63.5798
    64.3039  64.3092  64.4296  64.4312  64.6420  64.6496  65.0919  65.0922
    65.1666  65.1764  65.3081  65.3679  65.8000  65.8134  66.1024  66.1102
    66.1593  66.2094  66.3991  66.4199  66.6135  66.6307  66.6405  66.6408
    67.0326  67.0366  67.0834  67.1336  67.3767  67.3803  67.7095  67.7350
    67.7442  67.7998  68.3543  68.3551  68.8779  68.8841  69.8358  69.8465
    69.9894  70.0319  70.1027  70.1753  70.4283  70.5141  70.6557  70.7167
    70.7245  70.8124  71.1691  71.1707  71.2845  71.3691  71.3718  71.3822
    71.4920  71.4937  71.6047  71.6148  71.7057  71.7366  71.8769  71.8870
    72.2063  72.2428  72.2797  72.3011  73.3021  73.3032  73.3322  73.3388
    73.3908  73.3974  73.6093  73.6110  73.6672  73.6857  74.2099  74.2122
    74.9648  74.9822  75.0005  75.0116  75.0494  75.0526  75.0581  75.1168
    75.4302  75.4540  75.6467  75.6725  75.7860  75.7920  75.8586  75.8718
    76.1398  76.1765  77.3712  77.3742  77.6443  77.6677  77.8579  77.8601
    78.1600  78.1661  78.6824  78.7015  78.7311  78.7505  78.7608  78.8163
    79.0859  79.1030  79.3367  79.5490  79.7671  79.7846

     Writing output data file MoS2.save/
 
     init_run     :      0.06s CPU      0.08s WALL (       1 calls)
     electrons    :     21.58s CPU     22.78s WALL (       1 calls)

     Called by init_run:
     wfcinit      :      0.00s CPU      0.00s WALL (       1 calls)
     potinit      :      0.04s CPU      0.04s WALL (       1 calls)
     hinit0       :      0.02s CPU      0.02s WALL (       1 calls)

     Called by electrons:
     c_bands      :     21.58s CPU     22.77s WALL (       1 calls)
     v_of_rho     :      0.00s CPU      0.00s WALL (       1 calls)

     Called by c_bands:
     init_us_2    :      0.00s CPU      0.00s WALL (       1 calls)
     ccgdiagg     :     19.57s CPU     20.65s WALL (       6 calls)
     wfcrot       :      1.59s CPU      1.70s WALL (       6 calls)

     Called by sum_band:

     Called by *cgdiagg:
     h_psi        :     11.15s CPU     11.81s WALL (   29245 calls)
     cdiaghg      :      0.40s CPU      0.41s WALL (       6 calls)

     Called by h_psi:
     h_psi:pot    :     11.00s CPU     11.66s WALL (   29245 calls)
     h_psi:calbec :      1.21s CPU      1.29s WALL (   29245 calls)
     vloc_psi     :      8.81s CPU      9.34s WALL (   29245 calls)
     add_vuspsi   :      0.75s CPU      0.80s WALL (   29245 calls)
     hs_1psi      :     10.68s CPU     11.27s WALL (   29239 calls)
     s_1psi       :      1.12s CPU      1.18s WALL (   29239 calls)

     General routines
     calbec       :      1.95s CPU      2.09s WALL (   58484 calls)
     fft          :      0.00s CPU      0.01s WALL (      13 calls)
     fftw         :      8.12s CPU      8.61s WALL (  129004 calls)
 
     Parallel routines
     fft_scatt_xy :      0.85s CPU      0.90s WALL (  129017 calls)
     fft_scatt_yz :      4.60s CPU      4.90s WALL (  129017 calls)
 
     PWSCF        :     22.15s CPU   1m29.71s WALL

 
   This run was terminated on:  12:51:43   3May2021            

=------------------------------------------------------------------------------=
   JOB DONE.
=------------------------------------------------------------------------------=
