
     Program PWSCF v.6.4.1 starts on 12Apr2021 at 13:51: 5 

     This program is part of the open-source Quantum ESPRESSO suite
     for quantum simulation of materials; please cite
         "P. Giannozzi et al., J. Phys.:Condens. Matter 21 395502 (2009);
         "P. Giannozzi et al., J. Phys.:Condens. Matter 29 465901 (2017);
          URL http://www.quantum-espresso.org", 
     in publications or presentations arising from this work. More details at
     http://www.quantum-espresso.org/quote

     Parallel version (MPI & OpenMP), running on      32 processor cores
     Number of MPI processes:                32
     Threads/MPI process:                     1

     MPI processes distributed on     1 nodes
     R & G space division:  proc/nbgrp/npool/nimage =      32
     Waiting for input...
     Reading input from standard input

     Current dimensions of program PWSCF are:
     Max number of different atomic species (ntypx) = 10
     Max number of k-points (npk) =  40000
     Max angular momentum in pseudopotentials (lmaxx) =  3

     Atomic positions and unit cell read from directory:
     ./silicon.save/
 
     Message from routine read_upf::
     Pseudo file Si_FR.UPF has been fixed on the fly.
To avoid this message in the future, permanently fix 
 your pseudo files following these instructions: 
https://gitlab.com/QEF/q-e/blob/master/upftools/how_to_fix_upf.md

     Subspace diagonalization in iterative solution of the eigenvalue problem:
     one sub-group per band group will be used
     scalapack distributed-memory algorithm (size of sub-group:  4*  4 procs)

     Message from routine setup:
     DEPRECATED: symmetry with ibrav=0, use correct ibrav instead
 
     Parallelization info
     --------------------
     sticks:   dense  smooth     PW     G-vecs:    dense   smooth      PW
     Min          11      11      3                  142      142      25
     Max          12      12      4                  145      145      29
     Sum         361     361    121                 4573     4573     869
 


     bravais-lattice index     =            0
     lattice parameter (alat)  =       7.2558  a.u.
     unit-cell volume          =     270.1072 (a.u.)^3
     number of atoms/cell      =            2
     number of atomic types    =            1
     number of electrons       =         8.00
     number of Kohn-Sham states=           30
     kinetic-energy cutoff     =      25.0000  Ry
     charge density cutoff     =     100.0000  Ry
     Exchange-correlation      = PZ ( 1  1  0  0 0 0)
     Non magnetic calculation with spin-orbit


     celldm(1)=   7.255773  celldm(2)=   0.000000  celldm(3)=   0.000000
     celldm(4)=   0.000000  celldm(5)=   0.000000  celldm(6)=   0.000000

     crystal axes: (cart. coord. in units of alat)
               a(1) = (   0.707107   0.707107   0.000000 )  
               a(2) = (   0.000000   0.707107   0.707107 )  
               a(3) = (   0.707107   0.000000   0.707107 )  

     reciprocal axes: (cart. coord. in units 2 pi/alat)
               b(1) = (  0.707107  0.707107 -0.707107 )  
               b(2) = ( -0.707107  0.707107  0.707107 )  
               b(3) = (  0.707107 -0.707107  0.707107 )  


     PseudoPot. # 1 for Si read from file:
     ../../../pseudo/ld1/Si_FR.UPF
     MD5 check sum: 0c20cc1f09e72bc250a06fb316886f38
     Pseudo is Norm-conserving, Zval =  4.0
     Generated using "atomic" code by A. Dal Corso v.6.0 svn rev. 13079
     Using radial grid of 1141 points,  3 beta functions with: 
                l(1) =   0
                l(2) =   1
                l(3) =   1

     atomic species   valence    mass     pseudopotential
        Si             4.00     1.00000     Si( 1.00)

     48 Sym. Ops., with inversion, found (36 have fractional translation)


                                    s                        frac. trans.

      isym =  1     identity                                     

 cryst.   s( 1) = (     1          0          0      )
                  (     0          1          0      )
                  (     0          0          1      )

 cart.    s( 1) = (  1.0000000  0.0000000 -0.0000000 )
                  ( -0.0000000  1.0000000  0.0000000 )
                  ( -0.0000000  0.0000000  1.0000000 )


      isym =  2     180 deg rotation - cart. axis [0,0,1]        

 cryst.   s( 2) = (    -1          0          0      )    f =(  0.5000000 )
                  (    -1          0          1      )       ( -0.0000000 )
                  (    -1          1          0      )       (  0.0000000 )

 cart.    s( 2) = ( -1.0000000 -0.0000000 -0.0000000 )    f =(  0.3535534 )
                  (  0.0000000 -1.0000000  0.0000000 )       (  0.3535534 )
                  (  0.0000000 -0.0000000  1.0000000 )       (  0.0000000 )


      isym =  3     180 deg rotation - cart. axis [0,1,0]        

 cryst.   s( 3) = (     0          1         -1      )    f =(  0.0000000 )
                  (     1          0         -1      )       (  0.0000000 )
                  (     0          0         -1      )       ( -0.5000000 )

 cart.    s( 3) = ( -1.0000000  0.0000000  0.0000000 )    f =( -0.3535534 )
                  (  0.0000000  1.0000000 -0.0000000 )       (  0.0000000 )
                  (  0.0000000  0.0000000 -1.0000000 )       ( -0.3535534 )


      isym =  4     180 deg rotation - cart. axis [1,0,0]        

 cryst.   s( 4) = (     0         -1          1      )    f =( -0.0000000 )
                  (     0         -1          0      )       (  0.5000000 )
                  (     1         -1          0      )       (  0.0000000 )

 cart.    s( 4) = (  1.0000000 -0.0000000  0.0000000 )    f =(  0.0000000 )
                  ( -0.0000000 -1.0000000 -0.0000000 )       (  0.3535534 )
                  ( -0.0000000 -0.0000000 -1.0000000 )       (  0.3535534 )


      isym =  5     180 deg rotation - cart. axis [1,1,0]        

 cryst.   s( 5) = (     1          0          0      )    f =(  0.5000000 )
                  (     1         -1          0      )       (  0.0000000 )
                  (     1          0         -1      )       (  0.0000000 )

 cart.    s( 5) = (  0.0000000  1.0000000  0.0000000 )    f =(  0.3535534 )
                  (  1.0000000 -0.0000000 -0.0000000 )       (  0.3535534 )
                  (  0.0000000 -0.0000000 -1.0000000 )       (  0.0000000 )


      isym =  6     180 deg rotation - cart. axis [1,-1,0]       

 cryst.   s( 6) = (    -1          0          0      )
                  (     0          0         -1      )
                  (     0         -1          0      )

 cart.    s( 6) = ( -0.0000000 -1.0000000  0.0000000 )
                  ( -1.0000000  0.0000000 -0.0000000 )
                  ( -0.0000000  0.0000000 -1.0000000 )


      isym =  7      90 deg rotation - cart. axis [0,0,-1]       

 cryst.   s( 7) = (     0         -1          1      )    f =( -0.0000000 )
                  (     0          0          1      )       (  0.0000000 )
                  (    -1          0          1      )       ( -0.5000000 )

 cart.    s( 7) = ( -0.0000000  1.0000000 -0.0000000 )    f =( -0.3535534 )
                  ( -1.0000000 -0.0000000  0.0000000 )       ( -0.0000000 )
                  ( -0.0000000 -0.0000000  1.0000000 )       ( -0.3535534 )


      isym =  8      90 deg rotation - cart. axis [0,0,1]        

 cryst.   s( 8) = (     0          1         -1      )    f =(  0.0000000 )
                  (    -1          1          0      )       (  0.5000000 )
                  (     0          1          0      )       (  0.0000000 )

 cart.    s( 8) = (  0.0000000 -1.0000000 -0.0000000 )    f =(  0.0000000 )
                  (  1.0000000  0.0000000  0.0000000 )       (  0.3535534 )
                  (  0.0000000  0.0000000  1.0000000 )       (  0.3535534 )


      isym =  9     180 deg rotation - cart. axis [1,0,1]        

 cryst.   s( 9) = (    -1          0          1      )    f =(  0.0000000 )
                  (     0         -1          1      )       (  0.0000000 )
                  (     0          0          1      )       ( -0.5000000 )

 cart.    s( 9) = ( -0.0000000 -0.0000000  1.0000000 )    f =( -0.3535534 )
                  (  0.0000000 -1.0000000 -0.0000000 )       (  0.0000000 )
                  (  1.0000000 -0.0000000 -0.0000000 )       ( -0.3535534 )


      isym = 10     180 deg rotation - cart. axis [-1,0,1]       

 cryst.   s(10) = (     0         -1          0      )
                  (    -1          0          0      )
                  (     0          0         -1      )

 cart.    s(10) = (  0.0000000 -0.0000000 -1.0000000 )
                  ( -0.0000000 -1.0000000  0.0000000 )
                  ( -1.0000000 -0.0000000  0.0000000 )


      isym = 11      90 deg rotation - cart. axis [0,1,0]        

 cryst.   s(11) = (     1          0         -1      )    f =(  0.5000000 )
                  (     1          0          0      )       ( -0.0000000 )
                  (     1         -1          0      )       (  0.0000000 )

 cart.    s(11) = (  0.0000000  0.0000000  1.0000000 )    f =(  0.3535534 )
                  ( -0.0000000  1.0000000 -0.0000000 )       (  0.3535534 )
                  ( -1.0000000  0.0000000 -0.0000000 )       (  0.0000000 )


      isym = 12      90 deg rotation - cart. axis [0,-1,0]       

 cryst.   s(12) = (     0          1          0      )    f =( -0.0000000 )
                  (     0          1         -1      )       (  0.5000000 )
                  (    -1          1          0      )       (  0.0000000 )

 cart.    s(12) = ( -0.0000000  0.0000000 -1.0000000 )    f =(  0.0000000 )
                  (  0.0000000  1.0000000  0.0000000 )       (  0.3535534 )
                  (  1.0000000  0.0000000  0.0000000 )       (  0.3535534 )


      isym = 13     180 deg rotation - cart. axis [0,1,1]        

 cryst.   s(13) = (    -1          1          0      )    f =(  0.0000000 )
                  (     0          1          0      )       (  0.5000000 )
                  (     0          1         -1      )       (  0.0000000 )

 cart.    s(13) = ( -1.0000000 -0.0000000  0.0000000 )    f =(  0.0000000 )
                  (  0.0000000  0.0000000  1.0000000 )       (  0.3535534 )
                  (  0.0000000  1.0000000  0.0000000 )       (  0.3535534 )


      isym = 14     180 deg rotation - cart. axis [0,1,-1]       

 cryst.   s(14) = (     0          0         -1      )
                  (     0         -1          0      )
                  (    -1          0          0      )

 cart.    s(14) = ( -1.0000000  0.0000000 -0.0000000 )
                  (  0.0000000 -0.0000000 -1.0000000 )
                  (  0.0000000 -1.0000000 -0.0000000 )


      isym = 15      90 deg rotation - cart. axis [-1,0,0]       

 cryst.   s(15) = (     1         -1          0      )    f =(  0.5000000 )
                  (     1          0         -1      )       (  0.0000000 )
                  (     1          0          0      )       (  0.0000000 )

 cart.    s(15) = (  1.0000000  0.0000000  0.0000000 )    f =(  0.3535534 )
                  ( -0.0000000 -0.0000000  1.0000000 )       (  0.3535534 )
                  ( -0.0000000 -1.0000000  0.0000000 )       (  0.0000000 )


      isym = 16      90 deg rotation - cart. axis [1,0,0]        

 cryst.   s(16) = (     0          0          1      )    f =(  0.0000000 )
                  (    -1          0          1      )       ( -0.0000000 )
                  (     0         -1          1      )       ( -0.5000000 )

 cart.    s(16) = (  1.0000000 -0.0000000 -0.0000000 )    f =( -0.3535534 )
                  ( -0.0000000  0.0000000 -1.0000000 )       ( -0.0000000 )
                  ( -0.0000000  1.0000000 -0.0000000 )       ( -0.3535534 )


      isym = 17     120 deg rotation - cart. axis [-1,-1,-1]     

 cryst.   s(17) = (     0          0          1      )
                  (     1          0          0      )
                  (     0          1          0      )

 cart.    s(17) = ( -0.0000000  1.0000000  0.0000000 )
                  (  0.0000000 -0.0000000  1.0000000 )
                  (  1.0000000 -0.0000000  0.0000000 )


      isym = 18     120 deg rotation - cart. axis [-1,1,1]       

 cryst.   s(18) = (     0          0         -1      )    f =( -0.0000000 )
                  (     0          1         -1      )       (  0.0000000 )
                  (     1          0         -1      )       ( -0.5000000 )

 cart.    s(18) = (  0.0000000 -1.0000000  0.0000000 )    f =( -0.3535534 )
                  ( -0.0000000  0.0000000  1.0000000 )       ( -0.0000000 )
                  ( -1.0000000  0.0000000  0.0000000 )       ( -0.3535534 )


      isym = 19     120 deg rotation - cart. axis [1,1,-1]       

 cryst.   s(19) = (     1         -1          0      )    f =(  0.0000000 )
                  (     0         -1          1      )       (  0.5000000 )
                  (     0         -1          0      )       (  0.0000000 )

 cart.    s(19) = (  0.0000000  1.0000000 -0.0000000 )    f =(  0.0000000 )
                  ( -0.0000000 -0.0000000 -1.0000000 )       (  0.3535534 )
                  ( -1.0000000 -0.0000000 -0.0000000 )       (  0.3535534 )


      isym = 20     120 deg rotation - cart. axis [1,-1,1]       

 cryst.   s(20) = (    -1          1          0      )    f =(  0.5000000 )
                  (    -1          0          0      )       (  0.0000000 )
                  (    -1          0          1      )       (  0.0000000 )

 cart.    s(20) = ( -0.0000000 -1.0000000 -0.0000000 )    f =(  0.3535534 )
                  (  0.0000000  0.0000000 -1.0000000 )       (  0.3535534 )
                  (  1.0000000  0.0000000 -0.0000000 )       (  0.0000000 )


      isym = 21     120 deg rotation - cart. axis [1,1,1]        

 cryst.   s(21) = (     0          1          0      )
                  (     0          0          1      )
                  (     1          0          0      )

 cart.    s(21) = (  0.0000000 -0.0000000  1.0000000 )
                  (  1.0000000  0.0000000 -0.0000000 )
                  (  0.0000000  1.0000000 -0.0000000 )


      isym = 22     120 deg rotation - cart. axis [-1,1,-1]      

 cryst.   s(22) = (     0         -1          0      )    f =(  0.0000000 )
                  (     1         -1          0      )       (  0.5000000 )
                  (     0         -1          1      )       (  0.0000000 )

 cart.    s(22) = ( -0.0000000  0.0000000  1.0000000 )    f =(  0.0000000 )
                  ( -1.0000000 -0.0000000 -0.0000000 )       (  0.3535534 )
                  ( -0.0000000 -1.0000000 -0.0000000 )       (  0.3535534 )


      isym = 23     120 deg rotation - cart. axis [1,-1,-1]      

 cryst.   s(23) = (    -1          0          1      )    f =(  0.5000000 )
                  (    -1          1          0      )       (  0.0000000 )
                  (    -1          0          0      )       (  0.0000000 )

 cart.    s(23) = ( -0.0000000 -0.0000000 -1.0000000 )    f =(  0.3535534 )
                  ( -1.0000000  0.0000000  0.0000000 )       (  0.3535534 )
                  ( -0.0000000  1.0000000  0.0000000 )       (  0.0000000 )


      isym = 24     120 deg rotation - cart. axis [-1,-1,1]      

 cryst.   s(24) = (     1          0         -1      )    f =(  0.0000000 )
                  (     0          0         -1      )       ( -0.0000000 )
                  (     0          1         -1      )       ( -0.5000000 )

 cart.    s(24) = (  0.0000000  0.0000000 -1.0000000 )    f =( -0.3535534 )
                  (  1.0000000 -0.0000000  0.0000000 )       ( -0.0000000 )
                  (  0.0000000 -1.0000000  0.0000000 )       ( -0.3535534 )


      isym = 25     inversion                                    

 cryst.   s(25) = (    -1          0          0      )
                  (     0         -1          0      )
                  (     0          0         -1      )

 cart.    s(25) = ( -1.0000000 -0.0000000  0.0000000 )
                  (  0.0000000 -1.0000000 -0.0000000 )
                  (  0.0000000 -0.0000000 -1.0000000 )


      isym = 26     inv. 180 deg rotation - cart. axis [0,0,1]   

 cryst.   s(26) = (     1          0          0      )    f =(  0.5000000 )
                  (     1          0         -1      )       ( -0.0000000 )
                  (     1         -1          0      )       (  0.0000000 )

 cart.    s(26) = (  1.0000000  0.0000000  0.0000000 )    f =(  0.3535534 )
                  ( -0.0000000  1.0000000 -0.0000000 )       (  0.3535534 )
                  ( -0.0000000  0.0000000 -1.0000000 )       (  0.0000000 )


      isym = 27     inv. 180 deg rotation - cart. axis [0,1,0]   

 cryst.   s(27) = (     0         -1          1      )    f =(  0.0000000 )
                  (    -1          0          1      )       (  0.0000000 )
                  (     0          0          1      )       ( -0.5000000 )

 cart.    s(27) = (  1.0000000 -0.0000000 -0.0000000 )    f =( -0.3535534 )
                  ( -0.0000000 -1.0000000  0.0000000 )       (  0.0000000 )
                  ( -0.0000000 -0.0000000  1.0000000 )       ( -0.3535534 )


      isym = 28     inv. 180 deg rotation - cart. axis [1,0,0]   

 cryst.   s(28) = (     0          1         -1      )    f =( -0.0000000 )
                  (     0          1          0      )       (  0.5000000 )
                  (    -1          1          0      )       (  0.0000000 )

 cart.    s(28) = ( -1.0000000  0.0000000 -0.0000000 )    f =(  0.0000000 )
                  (  0.0000000  1.0000000  0.0000000 )       (  0.3535534 )
                  (  0.0000000  0.0000000  1.0000000 )       (  0.3535534 )


      isym = 29     inv. 180 deg rotation - cart. axis [1,1,0]   

 cryst.   s(29) = (    -1          0          0      )    f =(  0.5000000 )
                  (    -1          1          0      )       (  0.0000000 )
                  (    -1          0          1      )       (  0.0000000 )

 cart.    s(29) = ( -0.0000000 -1.0000000 -0.0000000 )    f =(  0.3535534 )
                  ( -1.0000000  0.0000000  0.0000000 )       (  0.3535534 )
                  ( -0.0000000  0.0000000  1.0000000 )       (  0.0000000 )


      isym = 30     inv. 180 deg rotation - cart. axis [1,-1,0]  

 cryst.   s(30) = (     1          0          0      )
                  (     0          0          1      )
                  (     0          1          0      )

 cart.    s(30) = (  0.0000000  1.0000000 -0.0000000 )
                  (  1.0000000 -0.0000000  0.0000000 )
                  (  0.0000000 -0.0000000  1.0000000 )


      isym = 31     inv.  90 deg rotation - cart. axis [0,0,-1]  

 cryst.   s(31) = (     0          1         -1      )    f =( -0.0000000 )
                  (     0          0         -1      )       (  0.0000000 )
                  (     1          0         -1      )       ( -0.5000000 )

 cart.    s(31) = (  0.0000000 -1.0000000  0.0000000 )    f =( -0.3535534 )
                  (  1.0000000  0.0000000 -0.0000000 )       ( -0.0000000 )
                  (  0.0000000  0.0000000 -1.0000000 )       ( -0.3535534 )


      isym = 32     inv.  90 deg rotation - cart. axis [0,0,1]   

 cryst.   s(32) = (     0         -1          1      )    f =(  0.0000000 )
                  (     1         -1          0      )       (  0.5000000 )
                  (     0         -1          0      )       (  0.0000000 )

 cart.    s(32) = ( -0.0000000  1.0000000  0.0000000 )    f =(  0.0000000 )
                  ( -1.0000000 -0.0000000 -0.0000000 )       (  0.3535534 )
                  ( -0.0000000 -0.0000000 -1.0000000 )       (  0.3535534 )


      isym = 33     inv. 180 deg rotation - cart. axis [1,0,1]   

 cryst.   s(33) = (     1          0         -1      )    f =(  0.0000000 )
                  (     0          1         -1      )       (  0.0000000 )
                  (     0          0         -1      )       ( -0.5000000 )

 cart.    s(33) = (  0.0000000  0.0000000 -1.0000000 )    f =( -0.3535534 )
                  ( -0.0000000  1.0000000  0.0000000 )       (  0.0000000 )
                  ( -1.0000000  0.0000000  0.0000000 )       ( -0.3535534 )


      isym = 34     inv. 180 deg rotation - cart. axis [-1,0,1]  

 cryst.   s(34) = (     0          1          0      )
                  (     1          0          0      )
                  (     0          0          1      )

 cart.    s(34) = ( -0.0000000  0.0000000  1.0000000 )
                  (  0.0000000  1.0000000 -0.0000000 )
                  (  1.0000000  0.0000000 -0.0000000 )


      isym = 35     inv.  90 deg rotation - cart. axis [0,1,0]   

 cryst.   s(35) = (    -1          0          1      )    f =(  0.5000000 )
                  (    -1          0          0      )       ( -0.0000000 )
                  (    -1          1          0      )       (  0.0000000 )

 cart.    s(35) = ( -0.0000000 -0.0000000 -1.0000000 )    f =(  0.3535534 )
                  (  0.0000000 -1.0000000  0.0000000 )       (  0.3535534 )
                  (  1.0000000 -0.0000000  0.0000000 )       (  0.0000000 )


      isym = 36     inv.  90 deg rotation - cart. axis [0,-1,0]  

 cryst.   s(36) = (     0         -1          0      )    f =( -0.0000000 )
                  (     0         -1          1      )       (  0.5000000 )
                  (     1         -1          0      )       (  0.0000000 )

 cart.    s(36) = (  0.0000000 -0.0000000  1.0000000 )    f =(  0.0000000 )
                  ( -0.0000000 -1.0000000 -0.0000000 )       (  0.3535534 )
                  ( -1.0000000 -0.0000000 -0.0000000 )       (  0.3535534 )


      isym = 37     inv. 180 deg rotation - cart. axis [0,1,1]   

 cryst.   s(37) = (     1         -1          0      )    f =(  0.0000000 )
                  (     0         -1          0      )       (  0.5000000 )
                  (     0         -1          1      )       (  0.0000000 )

 cart.    s(37) = (  1.0000000  0.0000000 -0.0000000 )    f =(  0.0000000 )
                  ( -0.0000000 -0.0000000 -1.0000000 )       (  0.3535534 )
                  ( -0.0000000 -1.0000000 -0.0000000 )       (  0.3535534 )


      isym = 38     inv. 180 deg rotation - cart. axis [0,1,-1]  

 cryst.   s(38) = (     0          0          1      )
                  (     0          1          0      )
                  (     1          0          0      )

 cart.    s(38) = (  1.0000000 -0.0000000  0.0000000 )
                  ( -0.0000000  0.0000000  1.0000000 )
                  ( -0.0000000  1.0000000  0.0000000 )


      isym = 39     inv.  90 deg rotation - cart. axis [-1,0,0]  

 cryst.   s(39) = (    -1          1          0      )    f =(  0.5000000 )
                  (    -1          0          1      )       (  0.0000000 )
                  (    -1          0          0      )       (  0.0000000 )

 cart.    s(39) = ( -1.0000000 -0.0000000 -0.0000000 )    f =(  0.3535534 )
                  (  0.0000000  0.0000000 -1.0000000 )       (  0.3535534 )
                  (  0.0000000  1.0000000 -0.0000000 )       (  0.0000000 )


      isym = 40     inv.  90 deg rotation - cart. axis [1,0,0]   

 cryst.   s(40) = (     0          0         -1      )    f =(  0.0000000 )
                  (     1          0         -1      )       ( -0.0000000 )
                  (     0          1         -1      )       ( -0.5000000 )

 cart.    s(40) = ( -1.0000000  0.0000000  0.0000000 )    f =( -0.3535534 )
                  (  0.0000000 -0.0000000  1.0000000 )       ( -0.0000000 )
                  (  0.0000000 -1.0000000  0.0000000 )       ( -0.3535534 )


      isym = 41     inv. 120 deg rotation - cart. axis [-1,-1,-1]

 cryst.   s(41) = (     0          0         -1      )
                  (    -1          0          0      )
                  (     0         -1          0      )

 cart.    s(41) = (  0.0000000 -1.0000000 -0.0000000 )
                  ( -0.0000000  0.0000000 -1.0000000 )
                  ( -1.0000000  0.0000000 -0.0000000 )


      isym = 42     inv. 120 deg rotation - cart. axis [-1,1,1]  

 cryst.   s(42) = (     0          0          1      )    f =( -0.0000000 )
                  (     0         -1          1      )       (  0.0000000 )
                  (    -1          0          1      )       ( -0.5000000 )

 cart.    s(42) = ( -0.0000000  1.0000000 -0.0000000 )    f =( -0.3535534 )
                  (  0.0000000 -0.0000000 -1.0000000 )       ( -0.0000000 )
                  (  1.0000000 -0.0000000 -0.0000000 )       ( -0.3535534 )


      isym = 43     inv. 120 deg rotation - cart. axis [1,1,-1]  

 cryst.   s(43) = (    -1          1          0      )    f =(  0.0000000 )
                  (     0          1         -1      )       (  0.5000000 )
                  (     0          1          0      )       (  0.0000000 )

 cart.    s(43) = ( -0.0000000 -1.0000000  0.0000000 )    f =(  0.0000000 )
                  (  0.0000000  0.0000000  1.0000000 )       (  0.3535534 )
                  (  1.0000000  0.0000000  0.0000000 )       (  0.3535534 )


      isym = 44     inv. 120 deg rotation - cart. axis [1,-1,1]  

 cryst.   s(44) = (     1         -1          0      )    f =(  0.5000000 )
                  (     1          0          0      )       (  0.0000000 )
                  (     1          0         -1      )       (  0.0000000 )

 cart.    s(44) = (  0.0000000  1.0000000  0.0000000 )    f =(  0.3535534 )
                  ( -0.0000000 -0.0000000  1.0000000 )       (  0.3535534 )
                  ( -1.0000000 -0.0000000  0.0000000 )       (  0.0000000 )


      isym = 45     inv. 120 deg rotation - cart. axis [1,1,1]   

 cryst.   s(45) = (     0         -1          0      )
                  (     0          0         -1      )
                  (    -1          0          0      )

 cart.    s(45) = ( -0.0000000  0.0000000 -1.0000000 )
                  ( -1.0000000 -0.0000000  0.0000000 )
                  ( -0.0000000 -1.0000000  0.0000000 )


      isym = 46     inv. 120 deg rotation - cart. axis [-1,1,-1] 

 cryst.   s(46) = (     0          1          0      )    f =(  0.0000000 )
                  (    -1          1          0      )       (  0.5000000 )
                  (     0          1         -1      )       (  0.0000000 )

 cart.    s(46) = (  0.0000000 -0.0000000 -1.0000000 )    f =(  0.0000000 )
                  (  1.0000000  0.0000000  0.0000000 )       (  0.3535534 )
                  (  0.0000000  1.0000000  0.0000000 )       (  0.3535534 )


      isym = 47     inv. 120 deg rotation - cart. axis [1,-1,-1] 

 cryst.   s(47) = (     1          0         -1      )    f =(  0.5000000 )
                  (     1         -1          0      )       (  0.0000000 )
                  (     1          0          0      )       (  0.0000000 )

 cart.    s(47) = (  0.0000000  0.0000000  1.0000000 )    f =(  0.3535534 )
                  (  1.0000000 -0.0000000 -0.0000000 )       (  0.3535534 )
                  (  0.0000000 -1.0000000 -0.0000000 )       (  0.0000000 )


      isym = 48     inv. 120 deg rotation - cart. axis [-1,-1,1] 

 cryst.   s(48) = (    -1          0          1      )    f =(  0.0000000 )
                  (     0          0          1      )       ( -0.0000000 )
                  (     0         -1          1      )       ( -0.5000000 )

 cart.    s(48) = ( -0.0000000 -0.0000000  1.0000000 )    f =( -0.3535534 )
                  ( -1.0000000  0.0000000 -0.0000000 )       ( -0.0000000 )
                  ( -0.0000000  1.0000000 -0.0000000 )       ( -0.3535534 )


   Cartesian axes

     site n.     atom                  positions (alat units)
         1           Si  tau(   1) = (  -0.1767767  -0.1767767  -0.1767767  )
         2           Si  tau(   2) = (   0.1767767   0.1767767   0.1767767  )

   Crystallographic axes

     site n.     atom                  positions (cryst. coord.)
         1           Si  tau(   1) = ( -0.1250000 -0.1250000 -0.1250000  )
         2           Si  tau(   2) = (  0.1250000  0.1250000  0.1250000  )

     number of k points=   202
                       cart. coord. in units 2pi/alat
        k(    1) = (   0.3535534   0.3535534   0.3535534), wk =   0.0049505
        k(    2) = (   0.3464823   0.3464823   0.3464823), wk =   0.0049505
        k(    3) = (   0.3394113   0.3394113   0.3394113), wk =   0.0049505
        k(    4) = (   0.3323402   0.3323402   0.3323402), wk =   0.0049505
        k(    5) = (   0.3252691   0.3252691   0.3252691), wk =   0.0049505
        k(    6) = (   0.3181981   0.3181981   0.3181981), wk =   0.0049505
        k(    7) = (   0.3111270   0.3111270   0.3111270), wk =   0.0049505
        k(    8) = (   0.3040559   0.3040559   0.3040559), wk =   0.0049505
        k(    9) = (   0.2969848   0.2969848   0.2969848), wk =   0.0049505
        k(   10) = (   0.2899138   0.2899138   0.2899138), wk =   0.0049505
        k(   11) = (   0.2828427   0.2828427   0.2828427), wk =   0.0049505
        k(   12) = (   0.2757716   0.2757716   0.2757716), wk =   0.0049505
        k(   13) = (   0.2687006   0.2687006   0.2687006), wk =   0.0049505
        k(   14) = (   0.2616295   0.2616295   0.2616295), wk =   0.0049505
        k(   15) = (   0.2545584   0.2545584   0.2545584), wk =   0.0049505
        k(   16) = (   0.2474874   0.2474874   0.2474874), wk =   0.0049505
        k(   17) = (   0.2404163   0.2404163   0.2404163), wk =   0.0049505
        k(   18) = (   0.2333452   0.2333452   0.2333452), wk =   0.0049505
        k(   19) = (   0.2262742   0.2262742   0.2262742), wk =   0.0049505
        k(   20) = (   0.2192031   0.2192031   0.2192031), wk =   0.0049505
        k(   21) = (   0.2121320   0.2121320   0.2121320), wk =   0.0049505
        k(   22) = (   0.2050610   0.2050610   0.2050610), wk =   0.0049505
        k(   23) = (   0.1979899   0.1979899   0.1979899), wk =   0.0049505
        k(   24) = (   0.1909188   0.1909188   0.1909188), wk =   0.0049505
        k(   25) = (   0.1838478   0.1838478   0.1838478), wk =   0.0049505
        k(   26) = (   0.1767767   0.1767767   0.1767767), wk =   0.0049505
        k(   27) = (   0.1697056   0.1697056   0.1697056), wk =   0.0049505
        k(   28) = (   0.1626346   0.1626346   0.1626346), wk =   0.0049505
        k(   29) = (   0.1555635   0.1555635   0.1555635), wk =   0.0049505
        k(   30) = (   0.1484924   0.1484924   0.1484924), wk =   0.0049505
        k(   31) = (   0.1414214   0.1414214   0.1414214), wk =   0.0049505
        k(   32) = (   0.1343503   0.1343503   0.1343503), wk =   0.0049505
        k(   33) = (   0.1272792   0.1272792   0.1272792), wk =   0.0049505
        k(   34) = (   0.1202082   0.1202082   0.1202082), wk =   0.0049505
        k(   35) = (   0.1131371   0.1131371   0.1131371), wk =   0.0049505
        k(   36) = (   0.1060660   0.1060660   0.1060660), wk =   0.0049505
        k(   37) = (   0.0989949   0.0989949   0.0989949), wk =   0.0049505
        k(   38) = (   0.0919239   0.0919239   0.0919239), wk =   0.0049505
        k(   39) = (   0.0848528   0.0848528   0.0848528), wk =   0.0049505
        k(   40) = (   0.0777817   0.0777817   0.0777817), wk =   0.0049505
        k(   41) = (   0.0707107   0.0707107   0.0707107), wk =   0.0049505
        k(   42) = (   0.0636396   0.0636396   0.0636396), wk =   0.0049505
        k(   43) = (   0.0565685   0.0565685   0.0565685), wk =   0.0049505
        k(   44) = (   0.0494975   0.0494975   0.0494975), wk =   0.0049505
        k(   45) = (   0.0424264   0.0424264   0.0424264), wk =   0.0049505
        k(   46) = (   0.0353553   0.0353553   0.0353553), wk =   0.0049505
        k(   47) = (   0.0282843   0.0282843   0.0282843), wk =   0.0049505
        k(   48) = (   0.0212132   0.0212132   0.0212132), wk =   0.0049505
        k(   49) = (   0.0141421   0.0141421   0.0141421), wk =   0.0049505
        k(   50) = (   0.0070711   0.0070711   0.0070711), wk =   0.0049505
        k(   51) = (   0.0000000   0.0000000   0.0000000), wk =   0.0049505
        k(   52) = (   0.0000000  -0.0000000   0.0141421), wk =   0.0049505
        k(   53) = (   0.0000000  -0.0000000   0.0282843), wk =   0.0049505
        k(   54) = (   0.0000000  -0.0000000   0.0424264), wk =   0.0049505
        k(   55) = (   0.0000000  -0.0000000   0.0565685), wk =   0.0049505
        k(   56) = (  -0.0000000   0.0000000   0.0707107), wk =   0.0049505
        k(   57) = (   0.0000000  -0.0000000   0.0848528), wk =   0.0049505
        k(   58) = (  -0.0000000   0.0000000   0.0989949), wk =   0.0049505
        k(   59) = (   0.0000000  -0.0000000   0.1131371), wk =   0.0049505
        k(   60) = (  -0.0000000   0.0000000   0.1272792), wk =   0.0049505
        k(   61) = (  -0.0000000   0.0000000   0.1414214), wk =   0.0049505
        k(   62) = (   0.0000000  -0.0000000   0.1555635), wk =   0.0049505
        k(   63) = (   0.0000000  -0.0000000   0.1697056), wk =   0.0049505
        k(   64) = (  -0.0000000   0.0000000   0.1838478), wk =   0.0049505
        k(   65) = (  -0.0000000   0.0000000   0.1979899), wk =   0.0049505
        k(   66) = (   0.0000000  -0.0000000   0.2121320), wk =   0.0049505
        k(   67) = (   0.0000000  -0.0000000   0.2262742), wk =   0.0049505
        k(   68) = (  -0.0000000   0.0000000   0.2404163), wk =   0.0049505
        k(   69) = (  -0.0000000   0.0000000   0.2545584), wk =   0.0049505
        k(   70) = (   0.0000000  -0.0000000   0.2687006), wk =   0.0049505
        k(   71) = (  -0.0000000   0.0000000   0.2828427), wk =   0.0049505
        k(   72) = (  -0.0000000   0.0000000   0.2969848), wk =   0.0049505
        k(   73) = (   0.0000000  -0.0000000   0.3111270), wk =   0.0049505
        k(   74) = (  -0.0000000   0.0000000   0.3252691), wk =   0.0049505
        k(   75) = (   0.0000000  -0.0000000   0.3394113), wk =   0.0049505
        k(   76) = (   0.0000000   0.0000000   0.3535534), wk =   0.0049505
        k(   77) = (  -0.0000000   0.0000000   0.3676955), wk =   0.0049505
        k(   78) = (   0.0000000  -0.0000000   0.3818377), wk =   0.0049505
        k(   79) = (  -0.0000000   0.0000000   0.3959798), wk =   0.0049505
        k(   80) = (  -0.0000000   0.0000000   0.4101219), wk =   0.0049505
        k(   81) = (   0.0000000  -0.0000000   0.4242641), wk =   0.0049505
        k(   82) = (  -0.0000000   0.0000000   0.4384062), wk =   0.0049505
        k(   83) = (   0.0000000  -0.0000000   0.4525483), wk =   0.0049505
        k(   84) = (  -0.0000000   0.0000000   0.4666905), wk =   0.0049505
        k(   85) = (  -0.0000000   0.0000000   0.4808326), wk =   0.0049505
        k(   86) = (   0.0000000  -0.0000000   0.4949747), wk =   0.0049505
        k(   87) = (  -0.0000000   0.0000000   0.5091169), wk =   0.0049505
        k(   88) = (  -0.0000000   0.0000000   0.5232590), wk =   0.0049505
        k(   89) = (   0.0000000  -0.0000000   0.5374012), wk =   0.0049505
        k(   90) = (   0.0000000  -0.0000000   0.5515433), wk =   0.0049505
        k(   91) = (  -0.0000000   0.0000000   0.5656854), wk =   0.0049505
        k(   92) = (  -0.0000000   0.0000000   0.5798276), wk =   0.0049505
        k(   93) = (  -0.0000000   0.0000000   0.5939697), wk =   0.0049505
        k(   94) = (  -0.0000000   0.0000000   0.6081118), wk =   0.0049505
        k(   95) = (   0.0000000  -0.0000000   0.6222540), wk =   0.0049505
        k(   96) = (   0.0000000  -0.0000000   0.6363961), wk =   0.0049505
        k(   97) = (  -0.0000000   0.0000000   0.6505382), wk =   0.0049505
        k(   98) = (  -0.0000000   0.0000000   0.6646804), wk =   0.0049505
        k(   99) = (   0.0000000  -0.0000000   0.6788225), wk =   0.0049505
        k(  100) = (  -0.0000000   0.0000000   0.6929646), wk =   0.0049505
        k(  101) = (   0.0000000   0.0000000   0.7071068), wk =   0.0049505
        k(  102) = (   0.0035355   0.0035355   0.7071068), wk =   0.0049505
        k(  103) = (   0.0070711   0.0070711   0.7071068), wk =   0.0049505
        k(  104) = (   0.0106066   0.0106066   0.7071068), wk =   0.0049505
        k(  105) = (   0.0141421   0.0141421   0.7071068), wk =   0.0049505
        k(  106) = (   0.0176777   0.0176777   0.7071068), wk =   0.0049505
        k(  107) = (   0.0212132   0.0212132   0.7071068), wk =   0.0049505
        k(  108) = (   0.0247487   0.0247487   0.7071068), wk =   0.0049505
        k(  109) = (   0.0282843   0.0282843   0.7071068), wk =   0.0049505
        k(  110) = (   0.0318198   0.0318198   0.7071068), wk =   0.0049505
        k(  111) = (   0.0353553   0.0353553   0.7071068), wk =   0.0049505
        k(  112) = (   0.0388909   0.0388909   0.7071068), wk =   0.0049505
        k(  113) = (   0.0424264   0.0424264   0.7071068), wk =   0.0049505
        k(  114) = (   0.0459619   0.0459619   0.7071068), wk =   0.0049505
        k(  115) = (   0.0494975   0.0494975   0.7071068), wk =   0.0049505
        k(  116) = (   0.0530330   0.0530330   0.7071068), wk =   0.0049505
        k(  117) = (   0.0565685   0.0565685   0.7071068), wk =   0.0049505
        k(  118) = (   0.0601041   0.0601041   0.7071068), wk =   0.0049505
        k(  119) = (   0.0636396   0.0636396   0.7071068), wk =   0.0049505
        k(  120) = (   0.0671751   0.0671751   0.7071068), wk =   0.0049505
        k(  121) = (   0.0707107   0.0707107   0.7071068), wk =   0.0049505
        k(  122) = (   0.0742462   0.0742462   0.7071068), wk =   0.0049505
        k(  123) = (   0.0777817   0.0777817   0.7071068), wk =   0.0049505
        k(  124) = (   0.0813173   0.0813173   0.7071068), wk =   0.0049505
        k(  125) = (   0.0848528   0.0848528   0.7071068), wk =   0.0049505
        k(  126) = (   0.0883883   0.0883883   0.7071068), wk =   0.0049505
        k(  127) = (   0.0919239   0.0919239   0.7071068), wk =   0.0049505
        k(  128) = (   0.0954594   0.0954594   0.7071068), wk =   0.0049505
        k(  129) = (   0.0989949   0.0989949   0.7071068), wk =   0.0049505
        k(  130) = (   0.1025305   0.1025305   0.7071068), wk =   0.0049505
        k(  131) = (   0.1060660   0.1060660   0.7071068), wk =   0.0049505
        k(  132) = (   0.1096016   0.1096016   0.7071068), wk =   0.0049505
        k(  133) = (   0.1131371   0.1131371   0.7071068), wk =   0.0049505
        k(  134) = (   0.1166726   0.1166726   0.7071068), wk =   0.0049505
        k(  135) = (   0.1202082   0.1202082   0.7071068), wk =   0.0049505
        k(  136) = (   0.1237437   0.1237437   0.7071068), wk =   0.0049505
        k(  137) = (   0.1272792   0.1272792   0.7071068), wk =   0.0049505
        k(  138) = (   0.1308148   0.1308148   0.7071068), wk =   0.0049505
        k(  139) = (   0.1343503   0.1343503   0.7071068), wk =   0.0049505
        k(  140) = (   0.1378858   0.1378858   0.7071068), wk =   0.0049505
        k(  141) = (   0.1414214   0.1414214   0.7071068), wk =   0.0049505
        k(  142) = (   0.1449569   0.1449569   0.7071068), wk =   0.0049505
        k(  143) = (   0.1484924   0.1484924   0.7071068), wk =   0.0049505
        k(  144) = (   0.1520280   0.1520280   0.7071068), wk =   0.0049505
        k(  145) = (   0.1555635   0.1555635   0.7071068), wk =   0.0049505
        k(  146) = (   0.1590990   0.1590990   0.7071068), wk =   0.0049505
        k(  147) = (   0.1626346   0.1626346   0.7071068), wk =   0.0049505
        k(  148) = (   0.1661701   0.1661701   0.7071068), wk =   0.0049505
        k(  149) = (   0.1697056   0.1697056   0.7071068), wk =   0.0049505
        k(  150) = (   0.1732412   0.1732412   0.7071068), wk =   0.0049505
        k(  151) = (   0.1767767   0.1767767   0.7071068), wk =   0.0049505
        k(  152) = (  -0.0000000   0.5303301   0.5303301), wk =   0.0049505
        k(  153) = (  -0.0000000   0.5197235   0.5197235), wk =   0.0049505
        k(  154) = (  -0.0000000   0.5091169   0.5091169), wk =   0.0049505
        k(  155) = (   0.0000000   0.4985103   0.4985103), wk =   0.0049505
        k(  156) = (   0.0000000   0.4879037   0.4879037), wk =   0.0049505
        k(  157) = (  -0.0000000   0.4772971   0.4772971), wk =   0.0049505
        k(  158) = (  -0.0000000   0.4666905   0.4666905), wk =   0.0049505
        k(  159) = (   0.0000000   0.4560839   0.4560839), wk =   0.0049505
        k(  160) = (   0.0000000   0.4454773   0.4454773), wk =   0.0049505
        k(  161) = (   0.0000000   0.4348707   0.4348707), wk =   0.0049505
        k(  162) = (   0.0000000   0.4242641   0.4242641), wk =   0.0049505
        k(  163) = (   0.0000000   0.4136575   0.4136575), wk =   0.0049505
        k(  164) = (  -0.0000000   0.4030509   0.4030509), wk =   0.0049505
        k(  165) = (  -0.0000000   0.3924443   0.3924443), wk =   0.0049505
        k(  166) = (   0.0000000   0.3818377   0.3818377), wk =   0.0049505
        k(  167) = (   0.0000000   0.3712311   0.3712311), wk =   0.0049505
        k(  168) = (   0.0000000   0.3606245   0.3606245), wk =   0.0049505
        k(  169) = (   0.0000000   0.3500179   0.3500179), wk =   0.0049505
        k(  170) = (   0.0000000   0.3394113   0.3394113), wk =   0.0049505
        k(  171) = (  -0.0000000   0.3288047   0.3288047), wk =   0.0049505
        k(  172) = (  -0.0000000   0.3181981   0.3181981), wk =   0.0049505
        k(  173) = (   0.0000000   0.3075914   0.3075914), wk =   0.0049505
        k(  174) = (  -0.0000000   0.2969848   0.2969848), wk =   0.0049505
        k(  175) = (  -0.0000000   0.2863782   0.2863782), wk =   0.0049505
        k(  176) = (   0.0000000   0.2757716   0.2757716), wk =   0.0049505
        k(  177) = (  -0.0000000   0.2651650   0.2651650), wk =   0.0049505
        k(  178) = (  -0.0000000   0.2545584   0.2545584), wk =   0.0049505
        k(  179) = (   0.0000000   0.2439518   0.2439518), wk =   0.0049505
        k(  180) = (  -0.0000000   0.2333452   0.2333452), wk =   0.0049505
        k(  181) = (  -0.0000000   0.2227386   0.2227386), wk =   0.0049505
        k(  182) = (  -0.0000000   0.2121320   0.2121320), wk =   0.0049505
        k(  183) = (  -0.0000000   0.2015254   0.2015254), wk =   0.0049505
        k(  184) = (   0.0000000   0.1909188   0.1909188), wk =   0.0049505
        k(  185) = (   0.0000000   0.1803122   0.1803122), wk =   0.0049505
        k(  186) = (  -0.0000000   0.1697056   0.1697056), wk =   0.0049505
        k(  187) = (  -0.0000000   0.1590990   0.1590990), wk =   0.0049505
        k(  188) = (   0.0000000   0.1484924   0.1484924), wk =   0.0049505
        k(  189) = (   0.0000000   0.1378858   0.1378858), wk =   0.0049505
        k(  190) = (  -0.0000000   0.1272792   0.1272792), wk =   0.0049505
        k(  191) = (  -0.0000000   0.1166726   0.1166726), wk =   0.0049505
        k(  192) = (  -0.0000000   0.1060660   0.1060660), wk =   0.0049505
        k(  193) = (   0.0000000   0.0954594   0.0954594), wk =   0.0049505
        k(  194) = (  -0.0000000   0.0848528   0.0848528), wk =   0.0049505
        k(  195) = (   0.0000000   0.0742462   0.0742462), wk =   0.0049505
        k(  196) = (  -0.0000000   0.0636396   0.0636396), wk =   0.0049505
        k(  197) = (  -0.0000000   0.0530330   0.0530330), wk =   0.0049505
        k(  198) = (  -0.0000000   0.0424264   0.0424264), wk =   0.0049505
        k(  199) = (   0.0000000   0.0318198   0.0318198), wk =   0.0049505
        k(  200) = (   0.0000000   0.0212132   0.0212132), wk =   0.0049505
        k(  201) = (   0.0000000   0.0106066   0.0106066), wk =   0.0049505
        k(  202) = (   0.0000000   0.0000000   0.0000000), wk =   0.0049505

                       cryst. coord.
        k(    1) = (   0.5000000   0.5000000   0.5000000), wk =   0.0049505
        k(    2) = (   0.4900000   0.4900000   0.4900000), wk =   0.0049505
        k(    3) = (   0.4800000   0.4800000   0.4800000), wk =   0.0049505
        k(    4) = (   0.4700000   0.4700000   0.4700000), wk =   0.0049505
        k(    5) = (   0.4600000   0.4600000   0.4600000), wk =   0.0049505
        k(    6) = (   0.4500000   0.4500000   0.4500000), wk =   0.0049505
        k(    7) = (   0.4400000   0.4400000   0.4400000), wk =   0.0049505
        k(    8) = (   0.4300000   0.4300000   0.4300000), wk =   0.0049505
        k(    9) = (   0.4200000   0.4200000   0.4200000), wk =   0.0049505
        k(   10) = (   0.4100000   0.4100000   0.4100000), wk =   0.0049505
        k(   11) = (   0.4000000   0.4000000   0.4000000), wk =   0.0049505
        k(   12) = (   0.3900000   0.3900000   0.3900000), wk =   0.0049505
        k(   13) = (   0.3800000   0.3800000   0.3800000), wk =   0.0049505
        k(   14) = (   0.3700000   0.3700000   0.3700000), wk =   0.0049505
        k(   15) = (   0.3600000   0.3600000   0.3600000), wk =   0.0049505
        k(   16) = (   0.3500000   0.3500000   0.3500000), wk =   0.0049505
        k(   17) = (   0.3400000   0.3400000   0.3400000), wk =   0.0049505
        k(   18) = (   0.3300000   0.3300000   0.3300000), wk =   0.0049505
        k(   19) = (   0.3200000   0.3200000   0.3200000), wk =   0.0049505
        k(   20) = (   0.3100000   0.3100000   0.3100000), wk =   0.0049505
        k(   21) = (   0.3000000   0.3000000   0.3000000), wk =   0.0049505
        k(   22) = (   0.2900000   0.2900000   0.2900000), wk =   0.0049505
        k(   23) = (   0.2800000   0.2800000   0.2800000), wk =   0.0049505
        k(   24) = (   0.2700000   0.2700000   0.2700000), wk =   0.0049505
        k(   25) = (   0.2600000   0.2600000   0.2600000), wk =   0.0049505
        k(   26) = (   0.2500000   0.2500000   0.2500000), wk =   0.0049505
        k(   27) = (   0.2400000   0.2400000   0.2400000), wk =   0.0049505
        k(   28) = (   0.2300000   0.2300000   0.2300000), wk =   0.0049505
        k(   29) = (   0.2200000   0.2200000   0.2200000), wk =   0.0049505
        k(   30) = (   0.2100000   0.2100000   0.2100000), wk =   0.0049505
        k(   31) = (   0.2000000   0.2000000   0.2000000), wk =   0.0049505
        k(   32) = (   0.1900000   0.1900000   0.1900000), wk =   0.0049505
        k(   33) = (   0.1800000   0.1800000   0.1800000), wk =   0.0049505
        k(   34) = (   0.1700000   0.1700000   0.1700000), wk =   0.0049505
        k(   35) = (   0.1600000   0.1600000   0.1600000), wk =   0.0049505
        k(   36) = (   0.1500000   0.1500000   0.1500000), wk =   0.0049505
        k(   37) = (   0.1400000   0.1400000   0.1400000), wk =   0.0049505
        k(   38) = (   0.1300000   0.1300000   0.1300000), wk =   0.0049505
        k(   39) = (   0.1200000   0.1200000   0.1200000), wk =   0.0049505
        k(   40) = (   0.1100000   0.1100000   0.1100000), wk =   0.0049505
        k(   41) = (   0.1000000   0.1000000   0.1000000), wk =   0.0049505
        k(   42) = (   0.0900000   0.0900000   0.0900000), wk =   0.0049505
        k(   43) = (   0.0800000   0.0800000   0.0800000), wk =   0.0049505
        k(   44) = (   0.0700000   0.0700000   0.0700000), wk =   0.0049505
        k(   45) = (   0.0600000   0.0600000   0.0600000), wk =   0.0049505
        k(   46) = (   0.0500000   0.0500000   0.0500000), wk =   0.0049505
        k(   47) = (   0.0400000   0.0400000   0.0400000), wk =   0.0049505
        k(   48) = (   0.0300000   0.0300000   0.0300000), wk =   0.0049505
        k(   49) = (   0.0200000   0.0200000   0.0200000), wk =   0.0049505
        k(   50) = (   0.0100000   0.0100000   0.0100000), wk =   0.0049505
        k(   51) = (   0.0000000   0.0000000   0.0000000), wk =   0.0049505
        k(   52) = (  -0.0000000   0.0100000   0.0100000), wk =   0.0049505
        k(   53) = (  -0.0000000   0.0200000   0.0200000), wk =   0.0049505
        k(   54) = (  -0.0000000   0.0300000   0.0300000), wk =   0.0049505
        k(   55) = (  -0.0000000   0.0400000   0.0400000), wk =   0.0049505
        k(   56) = (  -0.0000000   0.0500000   0.0500000), wk =   0.0049505
        k(   57) = (  -0.0000000   0.0600000   0.0600000), wk =   0.0049505
        k(   58) = (   0.0000000   0.0700000   0.0700000), wk =   0.0049505
        k(   59) = (  -0.0000000   0.0800000   0.0800000), wk =   0.0049505
        k(   60) = (   0.0000000   0.0900000   0.0900000), wk =   0.0049505
        k(   61) = (  -0.0000000   0.1000000   0.1000000), wk =   0.0049505
        k(   62) = (   0.0000000   0.1100000   0.1100000), wk =   0.0049505
        k(   63) = (  -0.0000000   0.1200000   0.1200000), wk =   0.0049505
        k(   64) = (   0.0000000   0.1300000   0.1300000), wk =   0.0049505
        k(   65) = (   0.0000000   0.1400000   0.1400000), wk =   0.0049505
        k(   66) = (   0.0000000   0.1500000   0.1500000), wk =   0.0049505
        k(   67) = (  -0.0000000   0.1600000   0.1600000), wk =   0.0049505
        k(   68) = (  -0.0000000   0.1700000   0.1700000), wk =   0.0049505
        k(   69) = (   0.0000000   0.1800000   0.1800000), wk =   0.0049505
        k(   70) = (   0.0000000   0.1900000   0.1900000), wk =   0.0049505
        k(   71) = (  -0.0000000   0.2000000   0.2000000), wk =   0.0049505
        k(   72) = (  -0.0000000   0.2100000   0.2100000), wk =   0.0049505
        k(   73) = (   0.0000000   0.2200000   0.2200000), wk =   0.0049505
        k(   74) = (  -0.0000000   0.2300000   0.2300000), wk =   0.0049505
        k(   75) = (  -0.0000000   0.2400000   0.2400000), wk =   0.0049505
        k(   76) = (   0.0000000   0.2500000   0.2500000), wk =   0.0049505
        k(   77) = (   0.0000000   0.2600000   0.2600000), wk =   0.0049505
        k(   78) = (   0.0000000   0.2700000   0.2700000), wk =   0.0049505
        k(   79) = (   0.0000000   0.2800000   0.2800000), wk =   0.0049505
        k(   80) = (   0.0000000   0.2900000   0.2900000), wk =   0.0049505
        k(   81) = (   0.0000000   0.3000000   0.3000000), wk =   0.0049505
        k(   82) = (  -0.0000000   0.3100000   0.3100000), wk =   0.0049505
        k(   83) = (  -0.0000000   0.3200000   0.3200000), wk =   0.0049505
        k(   84) = (  -0.0000000   0.3300000   0.3300000), wk =   0.0049505
        k(   85) = (  -0.0000000   0.3400000   0.3400000), wk =   0.0049505
        k(   86) = (  -0.0000000   0.3500000   0.3500000), wk =   0.0049505
        k(   87) = (   0.0000000   0.3600000   0.3600000), wk =   0.0049505
        k(   88) = (  -0.0000000   0.3700000   0.3700000), wk =   0.0049505
        k(   89) = (   0.0000000   0.3800000   0.3800000), wk =   0.0049505
        k(   90) = (  -0.0000000   0.3900000   0.3900000), wk =   0.0049505
        k(   91) = (  -0.0000000   0.4000000   0.4000000), wk =   0.0049505
        k(   92) = (  -0.0000000   0.4100000   0.4100000), wk =   0.0049505
        k(   93) = (  -0.0000000   0.4200000   0.4200000), wk =   0.0049505
        k(   94) = (   0.0000000   0.4300000   0.4300000), wk =   0.0049505
        k(   95) = (   0.0000000   0.4400000   0.4400000), wk =   0.0049505
        k(   96) = (   0.0000000   0.4500000   0.4500000), wk =   0.0049505
        k(   97) = (  -0.0000000   0.4600000   0.4600000), wk =   0.0049505
        k(   98) = (  -0.0000000   0.4700000   0.4700000), wk =   0.0049505
        k(   99) = (  -0.0000000   0.4800000   0.4800000), wk =   0.0049505
        k(  100) = (  -0.0000000   0.4900000   0.4900000), wk =   0.0049505
        k(  101) = (   0.0000000   0.5000000   0.5000000), wk =   0.0049505
        k(  102) = (   0.0050000   0.5025000   0.5025000), wk =   0.0049505
        k(  103) = (   0.0100000   0.5050000   0.5050000), wk =   0.0049505
        k(  104) = (   0.0150000   0.5075000   0.5075000), wk =   0.0049505
        k(  105) = (   0.0200000   0.5100000   0.5100000), wk =   0.0049505
        k(  106) = (   0.0250000   0.5125000   0.5125000), wk =   0.0049505
        k(  107) = (   0.0300000   0.5150000   0.5150000), wk =   0.0049505
        k(  108) = (   0.0350000   0.5175000   0.5175000), wk =   0.0049505
        k(  109) = (   0.0400000   0.5200000   0.5200000), wk =   0.0049505
        k(  110) = (   0.0450000   0.5225000   0.5225000), wk =   0.0049505
        k(  111) = (   0.0500000   0.5250000   0.5250000), wk =   0.0049505
        k(  112) = (   0.0550000   0.5275000   0.5275000), wk =   0.0049505
        k(  113) = (   0.0600000   0.5300000   0.5300000), wk =   0.0049505
        k(  114) = (   0.0650000   0.5325000   0.5325000), wk =   0.0049505
        k(  115) = (   0.0700000   0.5350000   0.5350000), wk =   0.0049505
        k(  116) = (   0.0750000   0.5375000   0.5375000), wk =   0.0049505
        k(  117) = (   0.0800000   0.5400000   0.5400000), wk =   0.0049505
        k(  118) = (   0.0850000   0.5425000   0.5425000), wk =   0.0049505
        k(  119) = (   0.0900000   0.5450000   0.5450000), wk =   0.0049505
        k(  120) = (   0.0950000   0.5475000   0.5475000), wk =   0.0049505
        k(  121) = (   0.1000000   0.5500000   0.5500000), wk =   0.0049505
        k(  122) = (   0.1050000   0.5525000   0.5525000), wk =   0.0049505
        k(  123) = (   0.1100000   0.5550000   0.5550000), wk =   0.0049505
        k(  124) = (   0.1150000   0.5575000   0.5575000), wk =   0.0049505
        k(  125) = (   0.1200000   0.5600000   0.5600000), wk =   0.0049505
        k(  126) = (   0.1250000   0.5625000   0.5625000), wk =   0.0049505
        k(  127) = (   0.1300000   0.5650000   0.5650000), wk =   0.0049505
        k(  128) = (   0.1350000   0.5675000   0.5675000), wk =   0.0049505
        k(  129) = (   0.1400000   0.5700000   0.5700000), wk =   0.0049505
        k(  130) = (   0.1450000   0.5725000   0.5725000), wk =   0.0049505
        k(  131) = (   0.1500000   0.5750000   0.5750000), wk =   0.0049505
        k(  132) = (   0.1550000   0.5775000   0.5775000), wk =   0.0049505
        k(  133) = (   0.1600000   0.5800000   0.5800000), wk =   0.0049505
        k(  134) = (   0.1650000   0.5825000   0.5825000), wk =   0.0049505
        k(  135) = (   0.1700000   0.5850000   0.5850000), wk =   0.0049505
        k(  136) = (   0.1750000   0.5875000   0.5875000), wk =   0.0049505
        k(  137) = (   0.1800000   0.5900000   0.5900000), wk =   0.0049505
        k(  138) = (   0.1850000   0.5925000   0.5925000), wk =   0.0049505
        k(  139) = (   0.1900000   0.5950000   0.5950000), wk =   0.0049505
        k(  140) = (   0.1950000   0.5975000   0.5975000), wk =   0.0049505
        k(  141) = (   0.2000000   0.6000000   0.6000000), wk =   0.0049505
        k(  142) = (   0.2050000   0.6025000   0.6025000), wk =   0.0049505
        k(  143) = (   0.2100000   0.6050000   0.6050000), wk =   0.0049505
        k(  144) = (   0.2150000   0.6075000   0.6075000), wk =   0.0049505
        k(  145) = (   0.2200000   0.6100000   0.6100000), wk =   0.0049505
        k(  146) = (   0.2250000   0.6125000   0.6125000), wk =   0.0049505
        k(  147) = (   0.2300000   0.6150000   0.6150000), wk =   0.0049505
        k(  148) = (   0.2350000   0.6175000   0.6175000), wk =   0.0049505
        k(  149) = (   0.2400000   0.6200000   0.6200000), wk =   0.0049505
        k(  150) = (   0.2450000   0.6225000   0.6225000), wk =   0.0049505
        k(  151) = (   0.2500000   0.6250000   0.6250000), wk =   0.0049505
        k(  152) = (   0.3750000   0.7500000   0.3750000), wk =   0.0049505
        k(  153) = (   0.3675000   0.7350000   0.3675000), wk =   0.0049505
        k(  154) = (   0.3600000   0.7200000   0.3600000), wk =   0.0049505
        k(  155) = (   0.3525000   0.7050000   0.3525000), wk =   0.0049505
        k(  156) = (   0.3450000   0.6900000   0.3450000), wk =   0.0049505
        k(  157) = (   0.3375000   0.6750000   0.3375000), wk =   0.0049505
        k(  158) = (   0.3300000   0.6600000   0.3300000), wk =   0.0049505
        k(  159) = (   0.3225000   0.6450000   0.3225000), wk =   0.0049505
        k(  160) = (   0.3150000   0.6300000   0.3150000), wk =   0.0049505
        k(  161) = (   0.3075000   0.6150000   0.3075000), wk =   0.0049505
        k(  162) = (   0.3000000   0.6000000   0.3000000), wk =   0.0049505
        k(  163) = (   0.2925000   0.5850000   0.2925000), wk =   0.0049505
        k(  164) = (   0.2850000   0.5700000   0.2850000), wk =   0.0049505
        k(  165) = (   0.2775000   0.5550000   0.2775000), wk =   0.0049505
        k(  166) = (   0.2700000   0.5400000   0.2700000), wk =   0.0049505
        k(  167) = (   0.2625000   0.5250000   0.2625000), wk =   0.0049505
        k(  168) = (   0.2550000   0.5100000   0.2550000), wk =   0.0049505
        k(  169) = (   0.2475000   0.4950000   0.2475000), wk =   0.0049505
        k(  170) = (   0.2400000   0.4800000   0.2400000), wk =   0.0049505
        k(  171) = (   0.2325000   0.4650000   0.2325000), wk =   0.0049505
        k(  172) = (   0.2250000   0.4500000   0.2250000), wk =   0.0049505
        k(  173) = (   0.2175000   0.4350000   0.2175000), wk =   0.0049505
        k(  174) = (   0.2100000   0.4200000   0.2100000), wk =   0.0049505
        k(  175) = (   0.2025000   0.4050000   0.2025000), wk =   0.0049505
        k(  176) = (   0.1950000   0.3900000   0.1950000), wk =   0.0049505
        k(  177) = (   0.1875000   0.3750000   0.1875000), wk =   0.0049505
        k(  178) = (   0.1800000   0.3600000   0.1800000), wk =   0.0049505
        k(  179) = (   0.1725000   0.3450000   0.1725000), wk =   0.0049505
        k(  180) = (   0.1650000   0.3300000   0.1650000), wk =   0.0049505
        k(  181) = (   0.1575000   0.3150000   0.1575000), wk =   0.0049505
        k(  182) = (   0.1500000   0.3000000   0.1500000), wk =   0.0049505
        k(  183) = (   0.1425000   0.2850000   0.1425000), wk =   0.0049505
        k(  184) = (   0.1350000   0.2700000   0.1350000), wk =   0.0049505
        k(  185) = (   0.1275000   0.2550000   0.1275000), wk =   0.0049505
        k(  186) = (   0.1200000   0.2400000   0.1200000), wk =   0.0049505
        k(  187) = (   0.1125000   0.2250000   0.1125000), wk =   0.0049505
        k(  188) = (   0.1050000   0.2100000   0.1050000), wk =   0.0049505
        k(  189) = (   0.0975000   0.1950000   0.0975000), wk =   0.0049505
        k(  190) = (   0.0900000   0.1800000   0.0900000), wk =   0.0049505
        k(  191) = (   0.0825000   0.1650000   0.0825000), wk =   0.0049505
        k(  192) = (   0.0750000   0.1500000   0.0750000), wk =   0.0049505
        k(  193) = (   0.0675000   0.1350000   0.0675000), wk =   0.0049505
        k(  194) = (   0.0600000   0.1200000   0.0600000), wk =   0.0049505
        k(  195) = (   0.0525000   0.1050000   0.0525000), wk =   0.0049505
        k(  196) = (   0.0450000   0.0900000   0.0450000), wk =   0.0049505
        k(  197) = (   0.0375000   0.0750000   0.0375000), wk =   0.0049505
        k(  198) = (   0.0300000   0.0600000   0.0300000), wk =   0.0049505
        k(  199) = (   0.0225000   0.0450000   0.0225000), wk =   0.0049505
        k(  200) = (   0.0150000   0.0300000   0.0150000), wk =   0.0049505
        k(  201) = (   0.0075000   0.0150000   0.0075000), wk =   0.0049505
        k(  202) = (   0.0000000   0.0000000   0.0000000), wk =   0.0049505

     Dense  grid:     4573 G-vectors     FFT dimensions: (  24,  24,  24)

     Dynamical RAM for                 wfc:       0.02 MB

     Dynamical RAM for     wfc (w. buffer):       3.16 MB

     Dynamical RAM for           str. fact:       0.00 MB

     Dynamical RAM for           local pot:       0.00 MB

     Dynamical RAM for          nlocal pot:       0.00 MB

     Dynamical RAM for                qrad:       0.16 MB

     Dynamical RAM for          rho,v,vnew:       0.08 MB

     Dynamical RAM for           G-vectors:       0.01 MB

     Dynamical RAM for          h,s,v(r/c):       0.04 MB

     Dynamical RAM for          <psi|beta>:       0.01 MB

     Dynamical RAM for                 psi:       0.06 MB

     Dynamical RAM for                hpsi:       0.06 MB

     Dynamical RAM for      wfcinit/wfcrot:       0.04 MB

     Estimated static dynamical RAM per process >       3.45 MB

     Estimated max dynamical RAM per process >       3.63 MB

     Estimated total dynamical RAM >     116.18 MB
     Message from routine sym_rho_init:
     some processors have no G-vectors for symmetrization
     Message from routine sym_rho_init:
     some processors have no G-vectors for symmetrization

     The potential is recalculated from file :
     ./silicon.save/charge-density

     Starting wfcs are   16 randomized atomic wfcs +   14 random wfcs

     Band Structure Calculation
     Davidson diagonalization with overlap

     Computing kpt #:     1
     total cpu time spent up to now is        0.7 secs

     Computing kpt #:     2
     total cpu time spent up to now is        0.9 secs

     Computing kpt #:     3
     total cpu time spent up to now is        1.1 secs

     Computing kpt #:     4
     total cpu time spent up to now is        1.3 secs

     Computing kpt #:     5
     total cpu time spent up to now is        1.4 secs

     Computing kpt #:     6
     total cpu time spent up to now is        1.6 secs

     Computing kpt #:     7
     total cpu time spent up to now is        1.8 secs

     Computing kpt #:     8
     total cpu time spent up to now is        1.9 secs

     Computing kpt #:     9
     total cpu time spent up to now is        2.1 secs

     Computing kpt #:    10
     total cpu time spent up to now is        2.3 secs

     Computing kpt #:    11
     total cpu time spent up to now is        2.4 secs

     Computing kpt #:    12
     total cpu time spent up to now is        2.6 secs

     Computing kpt #:    13
     total cpu time spent up to now is        2.8 secs

     Computing kpt #:    14
     total cpu time spent up to now is        3.0 secs

     Computing kpt #:    15
     total cpu time spent up to now is        3.1 secs

     Computing kpt #:    16
     total cpu time spent up to now is        3.3 secs

     Computing kpt #:    17
     total cpu time spent up to now is        3.5 secs

     Computing kpt #:    18
     total cpu time spent up to now is        3.7 secs

     Computing kpt #:    19
     total cpu time spent up to now is        3.9 secs

     Computing kpt #:    20
     total cpu time spent up to now is        4.1 secs

     Computing kpt #:    21
     total cpu time spent up to now is        4.3 secs

     Computing kpt #:    22
     total cpu time spent up to now is        4.6 secs

     Computing kpt #:    23
     total cpu time spent up to now is        4.8 secs

     Computing kpt #:    24
     total cpu time spent up to now is        5.1 secs

     Computing kpt #:    25
     total cpu time spent up to now is        5.4 secs

     Computing kpt #:    26
     total cpu time spent up to now is        5.6 secs

     Computing kpt #:    27
     total cpu time spent up to now is        5.9 secs

     Computing kpt #:    28
     total cpu time spent up to now is        6.1 secs

     Computing kpt #:    29
     total cpu time spent up to now is        6.3 secs

     Computing kpt #:    30
     total cpu time spent up to now is        6.4 secs

     Computing kpt #:    31
     total cpu time spent up to now is        6.6 secs

     Computing kpt #:    32
     total cpu time spent up to now is        6.8 secs

     Computing kpt #:    33
     total cpu time spent up to now is        7.0 secs

     Computing kpt #:    34
     total cpu time spent up to now is        7.1 secs

     Computing kpt #:    35
     total cpu time spent up to now is        7.3 secs

     Computing kpt #:    36
     total cpu time spent up to now is        7.4 secs

     Computing kpt #:    37
     total cpu time spent up to now is        7.6 secs

     Computing kpt #:    38
     total cpu time spent up to now is        7.7 secs

     Computing kpt #:    39
     total cpu time spent up to now is        7.9 secs

     Computing kpt #:    40
     total cpu time spent up to now is        8.0 secs

     Computing kpt #:    41
     total cpu time spent up to now is        8.1 secs

     Computing kpt #:    42
     total cpu time spent up to now is        8.3 secs

     Computing kpt #:    43
     total cpu time spent up to now is        8.4 secs

     Computing kpt #:    44
     total cpu time spent up to now is        8.5 secs

     Computing kpt #:    45
     total cpu time spent up to now is        8.7 secs

     Computing kpt #:    46
     total cpu time spent up to now is        8.8 secs

     Computing kpt #:    47
     total cpu time spent up to now is        8.9 secs

     Computing kpt #:    48
     total cpu time spent up to now is        9.0 secs

     Computing kpt #:    49
     total cpu time spent up to now is        9.2 secs

     Computing kpt #:    50
     total cpu time spent up to now is        9.3 secs

     Computing kpt #:    51
     total cpu time spent up to now is        9.4 secs

     Computing kpt #:    52
     total cpu time spent up to now is        9.8 secs

     Computing kpt #:    53
     total cpu time spent up to now is       10.0 secs

     Computing kpt #:    54
     total cpu time spent up to now is       10.1 secs

     Computing kpt #:    55
     total cpu time spent up to now is       10.2 secs

     Computing kpt #:    56
     total cpu time spent up to now is       10.3 secs

     Computing kpt #:    57
     total cpu time spent up to now is       10.5 secs

     Computing kpt #:    58
     total cpu time spent up to now is       10.6 secs

     Computing kpt #:    59
     total cpu time spent up to now is       10.7 secs

     Computing kpt #:    60
     total cpu time spent up to now is       10.9 secs

     Computing kpt #:    61
     total cpu time spent up to now is       11.0 secs

     Computing kpt #:    62
     total cpu time spent up to now is       11.1 secs

     Computing kpt #:    63
     total cpu time spent up to now is       11.3 secs

     Computing kpt #:    64
     total cpu time spent up to now is       11.4 secs

     Computing kpt #:    65
     total cpu time spent up to now is       11.6 secs

     Computing kpt #:    66
     total cpu time spent up to now is       11.8 secs

     Computing kpt #:    67
     total cpu time spent up to now is       12.0 secs

     Computing kpt #:    68
     total cpu time spent up to now is       12.1 secs

     Computing kpt #:    69
     total cpu time spent up to now is       12.4 secs

     Computing kpt #:    70
     total cpu time spent up to now is       12.7 secs

     Computing kpt #:    71
     total cpu time spent up to now is       12.9 secs

     Computing kpt #:    72
     total cpu time spent up to now is       13.1 secs

     Computing kpt #:    73
     total cpu time spent up to now is       13.3 secs

     Computing kpt #:    74
     total cpu time spent up to now is       13.5 secs

     Computing kpt #:    75
     total cpu time spent up to now is       13.8 secs

     Computing kpt #:    76
     total cpu time spent up to now is       14.0 secs

     Computing kpt #:    77
     total cpu time spent up to now is       14.2 secs

     Computing kpt #:    78
     total cpu time spent up to now is       14.5 secs

     Computing kpt #:    79
     total cpu time spent up to now is       14.8 secs

     Computing kpt #:    80
     total cpu time spent up to now is       15.0 secs

     Computing kpt #:    81
     total cpu time spent up to now is       15.2 secs

     Computing kpt #:    82
     total cpu time spent up to now is       15.4 secs

     Computing kpt #:    83
     total cpu time spent up to now is       15.7 secs

     Computing kpt #:    84
     total cpu time spent up to now is       15.9 secs

     Computing kpt #:    85
     total cpu time spent up to now is       16.1 secs

     Computing kpt #:    86
     total cpu time spent up to now is       16.3 secs

     Computing kpt #:    87
     total cpu time spent up to now is       16.5 secs

     Computing kpt #:    88
     total cpu time spent up to now is       16.7 secs

     Computing kpt #:    89
     total cpu time spent up to now is       16.9 secs

     Computing kpt #:    90
     total cpu time spent up to now is       17.1 secs

     Computing kpt #:    91
     total cpu time spent up to now is       17.3 secs

     Computing kpt #:    92
     total cpu time spent up to now is       17.5 secs

     Computing kpt #:    93
     total cpu time spent up to now is       17.7 secs

     Computing kpt #:    94
     total cpu time spent up to now is       17.9 secs

     Computing kpt #:    95
     total cpu time spent up to now is       18.1 secs

     Computing kpt #:    96
     total cpu time spent up to now is       18.3 secs

     Computing kpt #:    97
     total cpu time spent up to now is       18.5 secs

     Computing kpt #:    98
     total cpu time spent up to now is       18.7 secs

     Computing kpt #:    99
     total cpu time spent up to now is       18.9 secs

     Computing kpt #:   100
     total cpu time spent up to now is       19.2 secs

     Computing kpt #:   101
     total cpu time spent up to now is       19.4 secs

     Computing kpt #:   102
     total cpu time spent up to now is       19.7 secs

     Computing kpt #:   103
     total cpu time spent up to now is       19.9 secs

     Computing kpt #:   104
     total cpu time spent up to now is       20.2 secs

     Computing kpt #:   105
     total cpu time spent up to now is       20.5 secs

     Computing kpt #:   106
     total cpu time spent up to now is       20.8 secs

     Computing kpt #:   107
     total cpu time spent up to now is       21.0 secs

     Computing kpt #:   108
     total cpu time spent up to now is       21.3 secs

     Computing kpt #:   109
     total cpu time spent up to now is       21.5 secs

     Computing kpt #:   110
     total cpu time spent up to now is       21.8 secs

     Computing kpt #:   111
     total cpu time spent up to now is       22.1 secs

     Computing kpt #:   112
     total cpu time spent up to now is       22.3 secs

     Computing kpt #:   113
     total cpu time spent up to now is       22.6 secs

     Computing kpt #:   114
     total cpu time spent up to now is       22.8 secs

     Computing kpt #:   115
     total cpu time spent up to now is       23.0 secs

     Computing kpt #:   116
     total cpu time spent up to now is       23.3 secs

     Computing kpt #:   117
     total cpu time spent up to now is       23.5 secs

     Computing kpt #:   118
     total cpu time spent up to now is       23.7 secs

     Computing kpt #:   119
     total cpu time spent up to now is       23.9 secs

     Computing kpt #:   120
     total cpu time spent up to now is       24.2 secs

     Computing kpt #:   121
     total cpu time spent up to now is       24.4 secs

     Computing kpt #:   122
     total cpu time spent up to now is       24.6 secs

     Computing kpt #:   123
     total cpu time spent up to now is       24.8 secs

     Computing kpt #:   124
     total cpu time spent up to now is       25.0 secs

     Computing kpt #:   125
     total cpu time spent up to now is       25.2 secs

     Computing kpt #:   126
     total cpu time spent up to now is       25.5 secs

     Computing kpt #:   127
     total cpu time spent up to now is       25.7 secs

     Computing kpt #:   128
     total cpu time spent up to now is       25.9 secs

     Computing kpt #:   129
     total cpu time spent up to now is       26.1 secs

     Computing kpt #:   130
     total cpu time spent up to now is       26.3 secs

     Computing kpt #:   131
     total cpu time spent up to now is       26.5 secs

     Computing kpt #:   132
     total cpu time spent up to now is       26.7 secs

     Computing kpt #:   133
     total cpu time spent up to now is       26.9 secs

     Computing kpt #:   134
     total cpu time spent up to now is       27.1 secs

     Computing kpt #:   135
     total cpu time spent up to now is       27.3 secs

     Computing kpt #:   136
     total cpu time spent up to now is       27.6 secs

     Computing kpt #:   137
     total cpu time spent up to now is       27.8 secs

     Computing kpt #:   138
     total cpu time spent up to now is       28.0 secs

     Computing kpt #:   139
     total cpu time spent up to now is       28.2 secs

     Computing kpt #:   140
     total cpu time spent up to now is       28.4 secs

     Computing kpt #:   141
     total cpu time spent up to now is       28.6 secs

     Computing kpt #:   142
     total cpu time spent up to now is       28.8 secs

     Computing kpt #:   143
     total cpu time spent up to now is       29.0 secs

     Computing kpt #:   144
     total cpu time spent up to now is       29.2 secs

     Computing kpt #:   145
     total cpu time spent up to now is       29.4 secs

     Computing kpt #:   146
     total cpu time spent up to now is       29.6 secs

     Computing kpt #:   147
     total cpu time spent up to now is       29.8 secs

     Computing kpt #:   148
     total cpu time spent up to now is       30.1 secs

     Computing kpt #:   149
     total cpu time spent up to now is       30.3 secs

     Computing kpt #:   150
     total cpu time spent up to now is       30.5 secs

     Computing kpt #:   151
     total cpu time spent up to now is       30.7 secs

     Computing kpt #:   152
     total cpu time spent up to now is       30.9 secs

     Computing kpt #:   153
     total cpu time spent up to now is       31.0 secs

     Computing kpt #:   154
     total cpu time spent up to now is       31.2 secs

     Computing kpt #:   155
     total cpu time spent up to now is       31.4 secs

     Computing kpt #:   156
     total cpu time spent up to now is       31.6 secs

     Computing kpt #:   157
     total cpu time spent up to now is       31.8 secs

     Computing kpt #:   158
     total cpu time spent up to now is       32.1 secs

     Computing kpt #:   159
     total cpu time spent up to now is       32.3 secs

     Computing kpt #:   160
     total cpu time spent up to now is       32.5 secs

     Computing kpt #:   161
     total cpu time spent up to now is       32.8 secs

     Computing kpt #:   162
     total cpu time spent up to now is       33.0 secs

     Computing kpt #:   163
     total cpu time spent up to now is       33.2 secs

     Computing kpt #:   164
     total cpu time spent up to now is       33.4 secs

     Computing kpt #:   165
     total cpu time spent up to now is       33.6 secs

     Computing kpt #:   166
     total cpu time spent up to now is       33.8 secs

     Computing kpt #:   167
     total cpu time spent up to now is       34.1 secs

     Computing kpt #:   168
     total cpu time spent up to now is       34.3 secs

     Computing kpt #:   169
     total cpu time spent up to now is       34.5 secs

     Computing kpt #:   170
     total cpu time spent up to now is       34.7 secs

     Computing kpt #:   171
     total cpu time spent up to now is       34.9 secs

     Computing kpt #:   172
     total cpu time spent up to now is       35.2 secs

     Computing kpt #:   173
     total cpu time spent up to now is       35.4 secs

     Computing kpt #:   174
     total cpu time spent up to now is       35.6 secs

     Computing kpt #:   175
     total cpu time spent up to now is       35.8 secs

     Computing kpt #:   176
     total cpu time spent up to now is       35.9 secs

     Computing kpt #:   177
     total cpu time spent up to now is       36.1 secs

     Computing kpt #:   178
     total cpu time spent up to now is       36.3 secs

     Computing kpt #:   179
     total cpu time spent up to now is       36.4 secs

     Computing kpt #:   180
     total cpu time spent up to now is       36.6 secs

     Computing kpt #:   181
     total cpu time spent up to now is       36.7 secs

     Computing kpt #:   182
     total cpu time spent up to now is       36.9 secs

     Computing kpt #:   183
     total cpu time spent up to now is       37.1 secs

     Computing kpt #:   184
     total cpu time spent up to now is       37.2 secs

     Computing kpt #:   185
     total cpu time spent up to now is       37.4 secs

     Computing kpt #:   186
     total cpu time spent up to now is       37.6 secs

     Computing kpt #:   187
     total cpu time spent up to now is       37.8 secs

     Computing kpt #:   188
     total cpu time spent up to now is       38.0 secs

     Computing kpt #:   189
     total cpu time spent up to now is       38.1 secs

     Computing kpt #:   190
     total cpu time spent up to now is       38.3 secs

     Computing kpt #:   191
     total cpu time spent up to now is       38.5 secs

     Computing kpt #:   192
     total cpu time spent up to now is       38.6 secs

     Computing kpt #:   193
     total cpu time spent up to now is       38.7 secs

     Computing kpt #:   194
     total cpu time spent up to now is       38.9 secs

     Computing kpt #:   195
     total cpu time spent up to now is       39.0 secs

     Computing kpt #:   196
     total cpu time spent up to now is       39.1 secs

     Computing kpt #:   197
     total cpu time spent up to now is       39.3 secs

     Computing kpt #:   198
     total cpu time spent up to now is       39.4 secs

     Computing kpt #:   199
     total cpu time spent up to now is       39.5 secs

     Computing kpt #:   200
     total cpu time spent up to now is       39.6 secs

     Computing kpt #:   201
     total cpu time spent up to now is       39.8 secs

     Computing kpt #:   202
     total cpu time spent up to now is       39.9 secs

     ethr =  1.25E-12,  avg # of iterations = 28.7

     total cpu time spent up to now is       39.9 secs

     End of band structure calculation

          k = 0.3536 0.3536 0.3536 (   568 PWs)   bands (ev):

    -3.5981  -3.5981  -0.9677  -0.9677   4.8003   4.8003   4.8334   4.8334
     7.4576   7.4576   9.3354   9.3354   9.3509   9.3509  13.5636  13.5636
    16.5863  16.5863  16.5864  16.5864  17.0897  17.0897  17.2719  17.2719
    17.2921  17.2921  18.6419  18.6419  25.0705  25.0705

          k = 0.3465 0.3465 0.3465 (   571 PWs)   bands (ev):

    -3.6040  -3.6040  -0.9595  -0.9595   4.8010   4.8010   4.8341   4.8341
     7.4581   7.4581   9.3362   9.3362   9.3517   9.3517  13.5649  13.5649
    16.5290  16.5290  16.5306  16.5306  17.0667  17.0667  17.3310  17.3310
    17.3503  17.3503  18.6644  18.6644  24.9511  24.9511

          k = 0.3394 0.3394 0.3394 (   571 PWs)   bands (ev):

    -3.6213  -3.6213  -0.9348  -0.9348   4.8031   4.8031   4.8362   4.8362
     7.4606   7.4606   9.3387   9.3387   9.3542   9.3542  13.5689  13.5689
    16.3948  16.3948  16.3988  16.3988  17.0008  17.0008  17.4736  17.4736
    17.4912  17.4912  18.7279  18.7279  24.7112  24.7112

          k = 0.3323 0.3323 0.3323 (   571 PWs)   bands (ev):

    -3.6494  -3.6494  -0.8943  -0.8943   4.8067   4.8067   4.8398   4.8398
     7.4648   7.4648   9.3427   9.3427   9.3584   9.3584  13.5754  13.5754
    16.2291  16.2291  16.2347  16.2347  16.9004  16.9004  17.6541  17.6541
    17.6703  17.6703  18.8230  18.8230  24.4417  24.4417

          k = 0.3253 0.3253 0.3253 (   571 PWs)   bands (ev):

    -3.6873  -3.6873  -0.8391  -0.8391   4.8117   4.8117   4.8448   4.8448
     7.4706   7.4706   9.3484   9.3484   9.3641   9.3641  13.5843  13.5843
    16.0520  16.0520  16.0586  16.0586  16.7756  16.7756  17.8520  17.8520
    17.8673  17.8673  18.9394  18.9394  24.1670  24.1670

          k = 0.3182 0.3182 0.3182 (   571 PWs)   bands (ev):

    -3.7339  -3.7339  -0.7703  -0.7703   4.8181   4.8181   4.8512   4.8512
     7.4780   7.4780   9.3556   9.3556   9.3714   9.3714  13.5956  13.5956
    15.8714  15.8714  15.8785  15.8785  16.6343  16.6343  18.0595  18.0595
    18.0741  18.0741  19.0681  19.0681  23.8951  23.8951

          k = 0.3111 0.3111 0.3111 (   571 PWs)   bands (ev):

    -3.7879  -3.7879  -0.6892  -0.6892   4.8260   4.8260   4.8590   4.8590
     7.4871   7.4871   9.3642   9.3642   9.3801   9.3801  13.6091  13.6091
    15.6906  15.6906  15.6981  15.6981  16.4821  16.4821  18.2730  18.2730
    18.2871  18.2871  19.2019  19.2019  23.6306  23.6306

          k = 0.3041 0.3041 0.3041 (   571 PWs)   bands (ev):

[...]

          k =-0.0000 0.5197 0.5197 (   572 PWs)   bands (ev):

    -2.2706  -2.2706  -1.1315  -1.1315   1.6446   1.6446   3.6417   3.6417
     7.2107   7.2107  10.3825  10.3825  13.2506  13.2506  13.7329  13.7329
    13.9473  13.9473  14.3667  14.3667  20.5080  20.5080  21.0748  21.0748
    21.4190  21.4190  21.5547  21.5547  21.6163  21.6163

          k =-0.0000 0.5091 0.5091 (   570 PWs)   bands (ev):

    -2.3471  -2.3471  -1.0549  -1.0549   1.6095   1.6095   3.6952   3.6952
     7.2731   7.2731  10.6877  10.6877  13.0711  13.0711  13.5505  13.5505
    13.8023  13.8023  14.2101  14.2101  20.5487  20.5487  21.2224  21.2224
    21.3182  21.3182  21.3869  21.3869  21.8205  21.8205

          k = 0.0000 0.4985 0.4985 (   570 PWs)   bands (ev):

    -2.4300  -2.4300  -0.9741  -0.9741   1.5863   1.5863   3.7511   3.7511
     7.3384   7.3384  10.9937  10.9937  12.8939  12.8939  13.3746  13.3746
    13.6585  13.6585  14.0571  14.0571  20.5228  20.5228  21.2121  21.2121
    21.2850  21.2850  21.3676  21.3676  22.0227  22.0227

          k = 0.0000 0.4879 0.4879 (   570 PWs)   bands (ev):

    -2.5187  -2.5187  -0.8892  -0.8892   1.5749   1.5749   3.8092   3.8092
     7.4063   7.4063  11.2975  11.2975  12.7194  12.7194  13.2084  13.2084
    13.5168  13.5168  13.9082  13.9082  20.4318  20.4318  21.0363  21.0363
    21.3157  21.3157  21.5104  21.5104  22.2223  22.2223

          k =-0.0000 0.4773 0.4773 (   572 PWs)   bands (ev):

    -2.6127  -2.6127  -0.8003  -0.8003   1.5749   1.5749   3.8696   3.8696
     7.4767   7.4767  11.5924  11.5924  12.5477  12.5477  13.0581  13.0581
    13.3776  13.3776  13.7635  13.7635  20.3004  20.3004  20.8618  20.8618
    21.3832  21.3832  21.6510  21.6510  22.4192  22.4192

          k =-0.0000 0.4667 0.4667 (   572 PWs)   bands (ev):

    -2.7113  -2.7113  -0.7072  -0.7072   1.5859   1.5859   3.9321   3.9321
     7.5496   7.5496  11.8624  11.8624  12.3788  12.3788  12.9392  12.9392
    13.2411  13.2411  13.6233  13.6233  20.1495  20.1495  20.6899  20.6899
    21.4609  21.4609  21.7893  21.7893  22.6136  22.6136

          k = 0.0000 0.4561 0.4561 (   572 PWs)   bands (ev):

    -2.8139  -2.8139  -0.6100  -0.6100   1.6073   1.6073   3.9965   3.9965
     7.6246   7.6246  12.0657  12.0657  12.2132  12.2132  12.8928  12.8928
    13.1078  13.1078  13.4879  13.4879  19.9902  19.9902  20.5216  20.5216
    21.5256  21.5256  21.9254  21.9254  22.8053  22.8053

          k = 0.0000 0.4455 0.4455 (   568 PWs)   bands (ev):

    -2.9198  -2.9198  -0.5084  -0.5084   1.6386   1.6386   4.0628   4.0628
     7.7016   7.7016  12.0497  12.0497  12.1387  12.1387  12.9675  12.9675
    12.9951  12.9951  13.3575  13.3575  19.8283  19.8283  20.3580  20.3580
    21.5453  21.5453  22.0595  22.0595  22.6706  22.6706

          k = 0.0000 0.4349 0.4349 (   572 PWs)   bands (ev):

    -3.0288  -3.0288  -0.4031  -0.4031   1.6792   1.6792   4.1307   4.1307
     7.7804   7.7804  11.8904  11.8904  12.0857  12.0857  12.8498  12.8498
    13.2056  13.2056  13.2321  13.2321  19.6652  19.6652  20.1989  20.1989
    21.4699  21.4699  22.1904  22.1904  22.4982  22.4982

          k = 0.0000 0.4243 0.4243 (   572 PWs)   bands (ev):

    -3.1395  -3.1395  -0.2938  -0.2938   1.7286   1.7286   4.2001   4.2001
     7.8606   7.8606  11.7342  11.7342  11.9758  11.9758  12.7272  12.7272
    13.1119  13.1119  13.4875  13.4875  19.5035  19.5035  20.0463  20.0463
    21.2742  21.2742  22.3187  22.3187  22.4532  22.4532

          k = 0.0000 0.4137 0.4137 (   572 PWs)   bands (ev):

    -3.2518  -3.2518  -0.1803  -0.1803   1.7862   1.7862   4.2709   4.2709
     7.9420   7.9420  11.5813  11.5813  11.8449  11.8449  12.6087  12.6087
    12.9975  12.9975  13.7934  13.7934  19.3435  19.3435  19.9006  19.9006
    20.9942  20.9942  22.4436  22.4436  22.4969  22.4969

          k =-0.0000 0.4031 0.4031 (   574 PWs)   bands (ev):

    -3.3648  -3.3648  -0.0632  -0.0632   1.8514   1.8514   4.3428   4.3428
     8.0240   8.0240  11.4314  11.4314  11.7061  11.7061  12.4943  12.4943
    12.8874  12.8874  14.1099  14.1099  19.1854  19.1854  19.7634  19.7634
    20.6736  20.6736  22.5645  22.5645  22.5854  22.5854

          k =-0.0000 0.3924 0.3924 (   570 PWs)   bands (ev):

    -3.4783  -3.4783   0.0582   0.0582   1.9239   1.9239   4.4157   4.4157
     8.1068   8.1068  11.2854  11.2854  11.5657  11.5657  12.3851  12.3851
    12.7849  12.7849  14.4275  14.4275  19.0298  19.0298  19.6358  19.6358
    20.3362  20.3362  22.6840  22.6840  22.6979  22.6979

          k = 0.0000 0.3818 0.3818 (   570 PWs)   bands (ev):

    -3.5919  -3.5919   0.1836   0.1836   2.0032   2.0032   4.4893   4.4893
     8.1895   8.1895  11.1429  11.1429  11.4256  11.4256  12.2811  12.2811
    12.6887  12.6887  14.7424  14.7424  18.8751  18.8751  19.5194  19.5194
    19.9926  19.9926  22.7938  22.7938  22.8200  22.8200

          k = 0.0000 0.3712 0.3712 (   570 PWs)   bands (ev):

    -3.7050  -3.7050   0.3128   0.3128   2.0888   2.0888   4.5635   4.5635
     8.2717   8.2717  11.0040  11.0040  11.2872  11.2872  12.1828  12.1828
    12.5990  12.5990  15.0505  15.0505  18.7206  18.7206  19.4172  19.4172
    19.6496  19.6496  22.8956  22.8956  22.9467  22.9467

          k = 0.0000 0.3606 0.3606 (   570 PWs)   bands (ev):

    -3.8173  -3.8173   0.4460   0.4460   2.1803   2.1803   4.6380   4.6380
     8.3528   8.3528  10.8687  10.8687  11.1511  11.1511  12.0905  12.0905
    12.5160  12.5160  15.3470  15.3470  18.5630  18.5630  19.3129  19.3129
    19.3330  19.3330  22.7034  22.7034  22.9870  22.9870

          k = 0.0000 0.3500 0.3500 (   574 PWs)   bands (ev):

    -3.9287  -3.9287   0.5830   0.5830   2.2772   2.2772   4.7125   4.7125
     8.4323   8.4323  10.7370  10.7370  11.0177  11.0177  12.0047  12.0047
    12.4401  12.4401  15.6247  15.6247  18.3955  18.3955  18.9912  18.9912
    19.2695  19.2695  22.4128  22.4128  23.0648  23.0648

          k = 0.0000 0.3394 0.3394 (   566 PWs)   bands (ev):

    -4.0379  -4.0379   0.7239   0.7239   2.3795   2.3795   4.7869   4.7869
     8.5094   8.5094  10.6093  10.6093  10.8879  10.8879  11.9260  11.9260
    12.3720  12.3720  15.8795  15.8795  18.2053  18.2053  18.6994  18.6994
    19.2361  19.2361  22.1257  22.1257  23.1306  23.1306

          k =-0.0000 0.3288 0.3288 (   566 PWs)   bands (ev):

    -4.1458  -4.1458   0.8685   0.8685   2.4867   2.4867   4.8608   4.8608
     8.5835   8.5835  10.4851  10.4851  10.7608  10.7608  11.8546  11.8546
    12.3109  12.3109  16.1016  16.1016  17.9727  17.9727  18.4570  18.4570
    19.2374  19.2374  21.8414  21.8414  23.1678  23.1678

          k =-0.0000 0.3182 0.3182 (   574 PWs)   bands (ev):

    -4.2520  -4.2520   1.0164   1.0164   2.5982   2.5982   4.9339   4.9339
     8.6537   8.6537  10.3645  10.3645  10.6367  10.6367  11.7907  11.7907
    12.2571  12.2571  16.2824  16.2824  17.6936  17.6936  18.2674  18.2674
    19.2785  19.2785  21.5632  21.5632  23.1744  23.1744

          k = 0.0000 0.3076 0.3076 (   572 PWs)   bands (ev):

    -4.3557  -4.3557   1.1686   1.1686   2.7142   2.7142   5.0060   5.0060
     8.7194   8.7194  10.2477  10.2477  10.5167  10.5167  11.7357  11.7357
    12.2116  12.2116  16.4165  16.4165  17.3887  17.3887  18.1146  18.1146
    19.3642  19.3642  21.2974  21.2974  23.1479  23.1479

          k =-0.0000 0.2970 0.2970 (   572 PWs)   bands (ev):

    -4.4571  -4.4571   1.3244   1.3244   2.8342   2.8342   5.0769   5.0769
     8.7797   8.7797  10.1348  10.1348  10.3999  10.3999  11.6888  11.6888
    12.1744  12.1744  16.5009  16.5009  17.0724  17.0724  17.9828  17.9828
    19.4875  19.4875  21.0518  21.0518  23.0818  23.0818

          k =-0.0000 0.2864 0.2864 (   564 PWs)   bands (ev):

    -4.5559  -4.5559   1.4844   1.4844   2.9579   2.9579   5.1463   5.1463
     8.8353   8.8353  10.0261  10.0261  10.2865  10.2865  11.6524  11.6524
    12.1457  12.1457  16.5383  16.5383  16.7535  16.7535  17.8678  17.8678
    19.6274  19.6274  20.8461  20.8461  22.9737  22.9737

          k = 0.0000 0.2758 0.2758 (   562 PWs)   bands (ev):

    -4.6521  -4.6521   1.6474   1.6474   3.0851   3.0851   5.2139   5.2139
     8.8829   8.8829   9.9208   9.9208  10.1767  10.1767  11.6226  11.6226
    12.1256  12.1256  16.4375  16.4375  16.5345  16.5345  17.7589  17.7589
    19.7328  19.7328  20.7255  20.7255  22.8247  22.8247

          k =-0.0000 0.2652 0.2652 (   562 PWs)   bands (ev):

    -4.7454  -4.7454   1.8138   1.8138   3.2153   3.2153   5.2794   5.2794
     8.9233   8.9233   9.8194   9.8194  10.0703  10.0703  11.6006  11.6006
    12.1143  12.1143  16.1248  16.1248  16.4968  16.4968  17.6580  17.6580
    19.7295  19.7295  20.7578  20.7578  22.6390  22.6390

          k =-0.0000 0.2546 0.2546 (   568 PWs)   bands (ev):

    -4.8359  -4.8359   1.9833   1.9833   3.3481   3.3481   5.3426   5.3426
     8.9563   8.9563   9.7218   9.7218   9.9674   9.9674  11.5854  11.5854
    12.1117  12.1117  15.8162  15.8162  16.4321  16.4321  17.5641  17.5641
    19.6073  19.6073  20.9429  20.9429  22.4217  22.4217

          k = 0.0000 0.2440 0.2440 (   564 PWs)   bands (ev):

    -4.9230  -4.9230   2.1565   2.1565   3.4837   3.4837   5.4033   5.4033
     8.9819   8.9819   9.6281   9.6281   9.8681   9.8681  11.5758  11.5758
    12.1186  12.1186  15.5201  15.5201  16.3460  16.3460  17.4772  17.4772
    19.4328  19.4328  21.2215  21.2215  22.1821  22.1821

          k =-0.0000 0.2333 0.2333 (   564 PWs)   bands (ev):

    -5.0070  -5.0070   2.3329   2.3329   3.6215   3.6215   5.4613   5.4613
     9.0001   9.0001   9.5383   9.5383   9.7722   9.7722  11.5693  11.5693
    12.1347  12.1347  15.2333  15.2333  16.2429  16.2429  17.3970  17.3970
    19.2369  19.2369  21.5446  21.5446  21.9249  21.9249

          k =-0.0000 0.2227 0.2227 (   564 PWs)   bands (ev):

    -5.0879  -5.0879   2.5125   2.5125   3.7611   3.7611   5.5165   5.5165
     9.0114   9.0114   9.4525   9.4525   9.6797   9.6797  11.5633  11.5633
    12.1599  12.1599  14.9597  14.9597  16.1259  16.1259  17.3234  17.3234
    19.0390  19.0390  21.6553  21.6553  21.8951  21.8951

          k =-0.0000 0.2121 0.2121 (   564 PWs)   bands (ev):

    -5.1653  -5.1653   2.6950   2.6950   3.9022   3.9022   5.5686   5.5686
     9.0164   9.0164   9.3705   9.3705   9.5906   9.5906  11.5540  11.5540
    12.1944  12.1944  14.7023  14.7023  15.9976  15.9976  17.2565  17.2565
    18.8465  18.8465  21.3777  21.3777  22.2635  22.2635

          k =-0.0000 0.2015 0.2015 (   564 PWs)   bands (ev):

    -5.2394  -5.2394   2.8804   2.8804   4.0445   4.0445   5.6176   5.6176
     9.0156   9.0156   9.2926   9.2926   9.5049   9.5049  11.5369  11.5369
    12.2380  12.2380  14.4648  14.4648  15.8599  15.8599  17.1964  17.1964
    18.6628  18.6628  21.0951  21.0951  22.6446  22.6446

          k = 0.0000 0.1909 0.1909 (   560 PWs)   bands (ev):

    -5.3097  -5.3097   3.0685   3.0685   4.1874   4.1874   5.6634   5.6634
     9.0098   9.0098   9.2187   9.2187   9.4226   9.4226  11.5070  11.5070
    12.2905  12.2905  14.2513  14.2513  15.7148  15.7148  17.1433  17.1433
    18.4907  18.4907  20.8103  20.8103  23.0378  23.0378

          k = 0.0000 0.1803 0.1803 (   560 PWs)   bands (ev):

    -5.3767  -5.3767   3.2591   3.2591   4.3305   4.3305   5.7060   5.7060
     8.9997   8.9997   9.1487   9.1487   9.3436   9.3436  11.4590  11.4590
    12.3518  12.3518  14.0659  14.0659  15.5636  15.5636  17.0973  17.0973
    18.3296  18.3296  20.5252  20.5252  23.4349  23.4349

          k =-0.0000 0.1697 0.1697 (   560 PWs)   bands (ev):

    -5.4402  -5.4402   3.4519   3.4519   4.4733   4.4733   5.7454   5.7454
     8.9860   8.9860   9.0829   9.0829   9.2678   9.2678  11.3880  11.3880
    12.4215  12.4215  13.9126  13.9126  15.4079  15.4079  17.0585  17.0585
    18.1806  18.1806  20.2416  20.2416  23.7332  23.7332

          k =-0.0000 0.1591 0.1591 (   559 PWs)   bands (ev):

    -5.4999  -5.4999   3.6467   3.6467   4.6153   4.6153   5.7815   5.7815
     8.9689   8.9689   9.0217   9.0217   9.1953   9.1953  11.2909  11.2909
    12.4993  12.4993  13.7932  13.7932  15.2496  15.2496  17.0271  17.0271
    18.0443  18.0443  19.9608  19.9608  23.5007  23.5007

          k = 0.0000 0.1485 0.1485 (   559 PWs)   bands (ev):

    -5.5560  -5.5560   3.8430   3.8430   4.7556   4.7556   5.8145   5.8145
     8.9458   8.9458   8.9682   8.9682   9.1260   9.1260  11.1674  11.1674
    12.5846  12.5846  13.7075  13.7075  15.0902  15.0902  17.0033  17.0033
    17.9194  17.9194  19.6843  19.6843  23.2618  23.2618

          k = 0.0000 0.1379 0.1379 (   559 PWs)   bands (ev):

    -5.6084  -5.6084   4.0405   4.0405   4.8938   4.8938   5.8445   5.8445
     8.9033   8.9033   8.9365   8.9365   9.0599   9.0599  11.0193  11.0193
    12.6767  12.6767  13.6526  13.6526  14.9315  14.9315  16.9870  16.9870
    17.8061  17.8061  19.4130  19.4130  23.0219  23.0219

          k =-0.0000 0.1273 0.1273 (   559 PWs)   bands (ev):

    -5.6571  -5.6571   4.2387   4.2387   5.0290   5.0290   5.8715   5.8715
     8.8548   8.8548   8.9134   8.9134   8.9972   8.9972  10.8511  10.8511
    12.7750  12.7750  13.6236  13.6236  14.7752  14.7752  16.9783  16.9783
    17.7037  17.7037  19.1484  19.1484  22.7846  22.7846

          k =-0.0000 0.1167 0.1167 (   559 PWs)   bands (ev):

    -5.7019  -5.7019   4.4367   4.4367   5.1603   5.1603   5.8957   5.8957
     8.8089   8.8089   8.8904   8.8904   8.9379   8.9379  10.6678  10.6678
    12.8785  12.8785  13.6151  13.6151  14.6230  14.6230  16.9768  16.9768
    17.6119  17.6119  18.8914  18.8914  22.5532  22.5532

          k =-0.0000 0.1061 0.1061 (   561 PWs)   bands (ev):

    -5.7431  -5.7431   4.6338   4.6338   5.2867   5.2867   5.9172   5.9172
     8.7668   8.7668   8.8654   8.8654   8.8833   8.8833  10.4751  10.4751
    12.9861  12.9861  13.6216  13.6216  14.4766  14.4766  16.9823  16.9823
    17.5299  17.5299  18.6436  18.6436  22.3301  22.3301

          k = 0.0000 0.0955 0.0955 (   561 PWs)   bands (ev):

    -5.7803  -5.7803   4.8287   4.8287   5.4071   5.4071   5.9362   5.9362
     8.7285   8.7285   8.8256   8.8256   8.8461   8.8461  10.2782  10.2782
    13.0963  13.0963  13.6382  13.6382  14.3380  14.3380  16.9942  16.9942
    17.4573  17.4573  18.4064  18.4064  22.1177  22.1177

          k =-0.0000 0.0849 0.0849 (   561 PWs)   bands (ev):

    -5.8136  -5.8136   5.0200   5.0200   5.5205   5.5205   5.9527   5.9527
     8.6940   8.6940   8.7778   8.7778   8.8196   8.8196  10.0824  10.0824
    13.2075  13.2075  13.6610  13.6610  14.2087  14.2087  17.0115  17.0115
    17.3936  17.3936  18.1816  18.1816  21.9182  21.9182

          k = 0.0000 0.0742 0.0742 (   559 PWs)   bands (ev):

    -5.8431  -5.8431   5.2057   5.2057   5.6254   5.6254   5.9670   5.9670
     8.6634   8.6634   8.7332   8.7332   8.7926   8.7926   9.8933   9.8933
    13.3189  13.3189  13.6874  13.6874  14.0902  14.0902  17.0333  17.0333
    17.3384  17.3384  17.9713  17.9713  21.7340  21.7340

          k =-0.0000 0.0636 0.0636 (   559 PWs)   bands (ev):

    -5.8687  -5.8687   5.3831   5.3831   5.7206   5.7206   5.9793   5.9793
     8.6365   8.6365   8.6929   8.6929   8.7624   8.7624   9.7160   9.7160
    13.4255  13.4255  13.7136  13.7136  13.9840  13.9840  17.0579  17.0579
    17.2912  17.2912  17.7779  17.7779  21.5670  21.5670

          k =-0.0000 0.0530 0.0530 (   553 PWs)   bands (ev):

    -5.8903  -5.8903   5.5486   5.5486   5.8044   5.8044   5.9898   5.9898
     8.6131   8.6131   8.6582   8.6582   8.7287   8.7287   9.5586   9.5586
    13.5284  13.5284  13.7394  13.7394  13.8915  13.8915  17.0837  17.0837
    17.2519  17.2519  17.6045  17.6045  21.4205  21.4205

          k =-0.0000 0.0424 0.0424 (   547 PWs)   bands (ev):

    -5.9081  -5.9081   5.6973   5.6973   5.8756   5.8756   5.9987   5.9987
     8.5930   8.5930   8.6294   8.6294   8.6907   8.6907   9.4261   9.4261
    13.6201  13.6201  13.7619  13.7619  13.8141  13.8141  17.1088  17.1088
    17.2200  17.2200  17.4544  17.4544  21.2962  21.2962

          k = 0.0000 0.0318 0.0318 (   547 PWs)   bands (ev):

    -5.9219  -5.9219   5.8228   5.8228   5.9329   5.9329   6.0065   6.0065
     8.5756   8.5756   8.6068   8.6068   8.6503   8.6503   9.3210   9.3210
    13.6962  13.6962  13.7526  13.7526  13.7798  13.7798  17.1309  17.1309
    17.1955  17.1955  17.3317  17.3317  21.1960  21.1960

          k = 0.0000 0.0212 0.0212 (   543 PWs)   bands (ev):

    -5.9316  -5.9316   5.9159   5.9159   5.9767   5.9767   6.0145   6.0145
     8.5606   8.5606   8.5915   8.5915   8.6134   8.6134   9.2481   9.2481
    13.7082  13.7082  13.7551  13.7551  13.7933  13.7933  17.1482  17.1482
    17.1784  17.1784  17.2405  17.2405  21.1229  21.1229

          k = 0.0000 0.0106 0.0106 (   537 PWs)   bands (ev):

    -5.9374  -5.9374   5.9648   5.9648   6.0110   6.0110   6.0226   6.0226
     8.5485   8.5485   8.5828   8.5828   8.5883   8.5883   9.2065   9.2065
    13.6815  13.6815  13.7923  13.7923  13.8020  13.8020  17.1581  17.1581
    17.1691  17.1691  17.1847  17.1847  21.0784  21.0784

          k = 0.0000 0.0000 0.0000 (   537 PWs)   bands (ev):

    -5.9394  -5.9394   5.9764   5.9764   6.0265   6.0265   6.0265   6.0265
     8.5433   8.5433   8.5800   8.5800   8.5800   8.5800   9.1927   9.1927
    13.6724  13.6724  13.8048  13.8048  13.8048  13.8048  17.1570  17.1570
    17.1680  17.1680  17.1680  17.1680  21.0633  21.0633

     Writing output data file silicon.save/
 
     init_run     :      0.01s CPU      0.05s WALL (       1 calls)
     electrons    :     36.68s CPU     39.48s WALL (       1 calls)

     Called by init_run:
     wfcinit      :      0.00s CPU      0.00s WALL (       1 calls)
     wfcinit:atom :      0.00s CPU      0.00s WALL (     202 calls)
     wfcinit:wfcr :      1.30s CPU      1.48s WALL (     202 calls)
     potinit      :      0.00s CPU      0.01s WALL (       1 calls)
     hinit0       :      0.00s CPU      0.03s WALL (       1 calls)

     Called by electrons:
     c_bands      :     36.68s CPU     39.47s WALL (       1 calls)
     v_of_rho     :      0.00s CPU      0.00s WALL (       1 calls)
     v_h          :      0.00s CPU      0.00s WALL (       1 calls)
     v_xc         :      0.00s CPU      0.00s WALL (       1 calls)

     Called by c_bands:
     init_us_2    :      0.00s CPU      0.00s WALL (     202 calls)
     cegterg      :     35.34s CPU     37.54s WALL (     376 calls)

     Called by sum_band:

     Called by *egterg:
     h_psi        :     16.41s CPU     17.70s WALL (    6375 calls)
     g_psi        :      0.05s CPU      0.06s WALL (    5797 calls)
     cdiaghg      :     17.55s CPU     18.47s WALL (    5999 calls)
     cegterg:over :      1.25s CPU      1.35s WALL (    5797 calls)
     cegterg:upda :      0.75s CPU      0.79s WALL (    5797 calls)
     cegterg:last :      0.28s CPU      0.28s WALL (    1131 calls)
     cdiaghg:chol :      0.69s CPU      0.74s WALL (    5999 calls)
     cdiaghg:inve :      0.37s CPU      0.41s WALL (    5999 calls)
     cdiaghg:para :      1.28s CPU      1.35s WALL (   11998 calls)

     Called by h_psi:
     h_psi:pot    :     16.38s CPU     17.67s WALL (    6375 calls)
     h_psi:calbec :      0.24s CPU      0.32s WALL (    6375 calls)
     vloc_psi     :     15.99s CPU     17.20s WALL (    6375 calls)
     add_vuspsi   :      0.09s CPU      0.10s WALL (    6375 calls)

     General routines
     calbec       :      0.22s CPU      0.29s WALL (    6375 calls)
     fft          :      0.00s CPU      0.03s WALL (       6 calls)
     fftw         :     15.01s CPU     16.15s WALL (  400868 calls)
 
     Parallel routines
     fft_scatt_xy :      1.13s CPU      1.22s WALL (  400874 calls)
     fft_scatt_yz :     10.16s CPU     11.01s WALL (  400874 calls)
 
     PWSCF        :     38.20s CPU     52.02s WALL

 
   This run was terminated on:  13:51:57  12Apr2021            

=------------------------------------------------------------------------------=
   JOB DONE.
=------------------------------------------------------------------------------=
