TACC:  Starting up job 7666532 
TACC:  Starting parallel tasks... 

     Program PWSCF v.6.4 starts on  1May2021 at 15:21: 8 

     This program is part of the open-source Quantum ESPRESSO suite
     for quantum simulation of materials; please cite
         "P. Giannozzi et al., J. Phys.:Condens. Matter 21 395502 (2009);
         "P. Giannozzi et al., J. Phys.:Condens. Matter 29 465901 (2017);
          URL http://www.quantum-espresso.org", 
     in publications or presentations arising from this work. More details at
     http://www.quantum-espresso.org/quote

     Parallel version (MPI), running on    64 processors

     MPI processes distributed on     1 nodes
     K-points division:     npool     =       4
     R & G space division:  proc/nbgrp/npool/nimage =      16
     Waiting for input...
     Reading input from standard input

     Current dimensions of program PWSCF are:
     Max number of different atomic species (ntypx) = 10
     Max number of k-points (npk) =  40000
     Max angular momentum in pseudopotentials (lmaxx) =  3

     Atomic positions and unit cell read from directory:
     ./cspbcl3.save/
 

     Subspace diagonalization in iterative solution of the eigenvalue problem:
     a serial algorithm will be used

 
     Parallelization info
     --------------------
     sticks:   dense  smooth     PW     G-vecs:    dense   smooth      PW
     Min          44      44     13                  889      889     155
     Max          46      46     14                  891      891     158
     Sum         717     717    221                14243    14243    2517
 


     bravais-lattice index     =            0
     lattice parameter (alat)  =      10.5806  a.u.
     unit-cell volume          =    1184.4808 (a.u.)^3
     number of atoms/cell      =            5
     number of atomic types    =            3
     number of electrons       =        44.00
     number of Kohn-Sham states=          300
     kinetic-energy cutoff     =      20.0000  Ry
     charge density cutoff     =      80.0000  Ry
     Exchange-correlation      = PBE ( 1  4  3  4 0 0)
     Non magnetic calculation with spin-orbit


     celldm(1)=  10.580577  celldm(2)=   0.000000  celldm(3)=   0.000000
     celldm(4)=   0.000000  celldm(5)=   0.000000  celldm(6)=   0.000000

     crystal axes: (cart. coord. in units of alat)
               a(1) = (   1.000000   0.000000   0.000000 )  
               a(2) = (   0.000000   1.000000   0.000000 )  
               a(3) = (   0.000000   0.000000   1.000000 )  

     reciprocal axes: (cart. coord. in units 2 pi/alat)
               b(1) = (  1.000000  0.000000  0.000000 )  
               b(2) = (  0.000000  1.000000  0.000000 )  
               b(3) = (  0.000000  0.000000  1.000000 )  


     PseudoPot. # 1 for Cs read from file:
     ../pseudopotentials/Cs.upf
     MD5 check sum: 0949d7fbeea01e664226101e754fa92a
     Pseudo is Norm-conserving + core correction, Zval =  9.0
     Generated using ONCVPSP code by D. R. Hamann
     Using radial grid of 2414 points, 14 beta functions with: 
                l(1) =   0
                l(2) =   0
                l(3) =   1
                l(4) =   1
                l(5) =   1
                l(6) =   1
                l(7) =   2
                l(8) =   2
                l(9) =   2
               l(10) =   2
               l(11) =   3
               l(12) =   3
               l(13) =   3
               l(14) =   3

     PseudoPot. # 2 for Pb read from file:
     ../pseudopotentials/Pb.upf
     MD5 check sum: 73abbbd201951038fc1bdacebad68d2f
     Pseudo is Norm-conserving + core correction, Zval = 14.0
     Generated using ONCVPSP code by D. R. Hamann
     Using radial grid of 1782 points, 10 beta functions with: 
                l(1) =   0
                l(2) =   0
                l(3) =   1
                l(4) =   1
                l(5) =   1
                l(6) =   1
                l(7) =   2
                l(8) =   2
                l(9) =   2
               l(10) =   2

     PseudoPot. # 3 for Cl read from file:
     ../pseudopotentials/Cl.upf
     MD5 check sum: b1ddb435c2952724bdf458cc656d2c80
     Pseudo is Norm-conserving + core correction, Zval =  7.0
     Generated using ONCVPSP code by D. R. Hamann
     Using radial grid of 1028 points, 10 beta functions with: 
                l(1) =   0
                l(2) =   0
                l(3) =   1
                l(4) =   1
                l(5) =   1
                l(6) =   1
                l(7) =   2
                l(8) =   2
                l(9) =   2
               l(10) =   2

     atomic species   valence    mass     pseudopotential
        Cs             9.00     1.00000     Cs( 1.00)
        Pb            14.00     1.00000     Pb( 1.00)
        Cl             7.00     1.00000     Cl( 1.00)

     48 Sym. Ops., with inversion, found


                                    s                        frac. trans.

      isym =  1     identity                                     

 cryst.   s( 1) = (     1          0          0      )
                  (     0          1          0      )
                  (     0          0          1      )

 cart.    s( 1) = (  1.0000000  0.0000000  0.0000000 )
                  (  0.0000000  1.0000000  0.0000000 )
                  (  0.0000000  0.0000000  1.0000000 )


      isym =  2     180 deg rotation - cart. axis [0,0,1]        

 cryst.   s( 2) = (    -1          0          0      )
                  (     0         -1          0      )
                  (     0          0          1      )

 cart.    s( 2) = ( -1.0000000  0.0000000  0.0000000 )
                  (  0.0000000 -1.0000000  0.0000000 )
                  (  0.0000000  0.0000000  1.0000000 )


      isym =  3     180 deg rotation - cart. axis [0,1,0]        

 cryst.   s( 3) = (    -1          0          0      )
                  (     0          1          0      )
                  (     0          0         -1      )

 cart.    s( 3) = ( -1.0000000  0.0000000  0.0000000 )
                  (  0.0000000  1.0000000  0.0000000 )
                  (  0.0000000  0.0000000 -1.0000000 )


      isym =  4     180 deg rotation - cart. axis [1,0,0]        

 cryst.   s( 4) = (     1          0          0      )
                  (     0         -1          0      )
                  (     0          0         -1      )

 cart.    s( 4) = (  1.0000000  0.0000000  0.0000000 )
                  (  0.0000000 -1.0000000  0.0000000 )
                  (  0.0000000  0.0000000 -1.0000000 )


      isym =  5     180 deg rotation - cart. axis [1,1,0]        

 cryst.   s( 5) = (     0          1          0      )
                  (     1          0          0      )
                  (     0          0         -1      )

 cart.    s( 5) = (  0.0000000  1.0000000  0.0000000 )
                  (  1.0000000  0.0000000  0.0000000 )
                  (  0.0000000  0.0000000 -1.0000000 )


      isym =  6     180 deg rotation - cart. axis [1,-1,0]       

 cryst.   s( 6) = (     0         -1          0      )
                  (    -1          0          0      )
                  (     0          0         -1      )

 cart.    s( 6) = (  0.0000000 -1.0000000  0.0000000 )
                  ( -1.0000000  0.0000000  0.0000000 )
                  (  0.0000000  0.0000000 -1.0000000 )


      isym =  7      90 deg rotation - cart. axis [0,0,-1]       

 cryst.   s( 7) = (     0         -1          0      )
                  (     1          0          0      )
                  (     0          0          1      )

 cart.    s( 7) = (  0.0000000  1.0000000  0.0000000 )
                  ( -1.0000000  0.0000000  0.0000000 )
                  (  0.0000000  0.0000000  1.0000000 )


      isym =  8      90 deg rotation - cart. axis [0,0,1]        

 cryst.   s( 8) = (     0          1          0      )
                  (    -1          0          0      )
                  (     0          0          1      )

 cart.    s( 8) = (  0.0000000 -1.0000000  0.0000000 )
                  (  1.0000000  0.0000000  0.0000000 )
                  (  0.0000000  0.0000000  1.0000000 )


      isym =  9     180 deg rotation - cart. axis [1,0,1]        

 cryst.   s( 9) = (     0          0          1      )
                  (     0         -1          0      )
                  (     1          0          0      )

 cart.    s( 9) = (  0.0000000  0.0000000  1.0000000 )
                  (  0.0000000 -1.0000000  0.0000000 )
                  (  1.0000000  0.0000000  0.0000000 )


      isym = 10     180 deg rotation - cart. axis [-1,0,1]       

 cryst.   s(10) = (     0          0         -1      )
                  (     0         -1          0      )
                  (    -1          0          0      )

 cart.    s(10) = (  0.0000000  0.0000000 -1.0000000 )
                  (  0.0000000 -1.0000000  0.0000000 )
                  ( -1.0000000  0.0000000  0.0000000 )


      isym = 11      90 deg rotation - cart. axis [0,1,0]        

 cryst.   s(11) = (     0          0         -1      )
                  (     0          1          0      )
                  (     1          0          0      )

 cart.    s(11) = (  0.0000000  0.0000000  1.0000000 )
                  (  0.0000000  1.0000000  0.0000000 )
                  ( -1.0000000  0.0000000  0.0000000 )


      isym = 12      90 deg rotation - cart. axis [0,-1,0]       

 cryst.   s(12) = (     0          0          1      )
                  (     0          1          0      )
                  (    -1          0          0      )

 cart.    s(12) = (  0.0000000  0.0000000 -1.0000000 )
                  (  0.0000000  1.0000000  0.0000000 )
                  (  1.0000000  0.0000000  0.0000000 )


      isym = 13     180 deg rotation - cart. axis [0,1,1]        

 cryst.   s(13) = (    -1          0          0      )
                  (     0          0          1      )
                  (     0          1          0      )

 cart.    s(13) = ( -1.0000000  0.0000000  0.0000000 )
                  (  0.0000000  0.0000000  1.0000000 )
                  (  0.0000000  1.0000000  0.0000000 )


      isym = 14     180 deg rotation - cart. axis [0,1,-1]       

 cryst.   s(14) = (    -1          0          0      )
                  (     0          0         -1      )
                  (     0         -1          0      )

 cart.    s(14) = ( -1.0000000  0.0000000  0.0000000 )
                  (  0.0000000  0.0000000 -1.0000000 )
                  (  0.0000000 -1.0000000  0.0000000 )


      isym = 15      90 deg rotation - cart. axis [-1,0,0]       

 cryst.   s(15) = (     1          0          0      )
                  (     0          0         -1      )
                  (     0          1          0      )

 cart.    s(15) = (  1.0000000  0.0000000  0.0000000 )
                  (  0.0000000  0.0000000  1.0000000 )
                  (  0.0000000 -1.0000000  0.0000000 )


      isym = 16      90 deg rotation - cart. axis [1,0,0]        

 cryst.   s(16) = (     1          0          0      )
                  (     0          0          1      )
                  (     0         -1          0      )

 cart.    s(16) = (  1.0000000  0.0000000  0.0000000 )
                  (  0.0000000  0.0000000 -1.0000000 )
                  (  0.0000000  1.0000000  0.0000000 )


      isym = 17     120 deg rotation - cart. axis [-1,-1,-1]     

 cryst.   s(17) = (     0          0          1      )
                  (     1          0          0      )
                  (     0          1          0      )

 cart.    s(17) = (  0.0000000  1.0000000  0.0000000 )
                  (  0.0000000  0.0000000  1.0000000 )
                  (  1.0000000  0.0000000  0.0000000 )


      isym = 18     120 deg rotation - cart. axis [-1,1,1]       

 cryst.   s(18) = (     0          0         -1      )
                  (    -1          0          0      )
                  (     0          1          0      )

 cart.    s(18) = (  0.0000000 -1.0000000  0.0000000 )
                  (  0.0000000  0.0000000  1.0000000 )
                  ( -1.0000000  0.0000000  0.0000000 )


      isym = 19     120 deg rotation - cart. axis [1,1,-1]       

 cryst.   s(19) = (     0          0         -1      )
                  (     1          0          0      )
                  (     0         -1          0      )

 cart.    s(19) = (  0.0000000  1.0000000  0.0000000 )
                  (  0.0000000  0.0000000 -1.0000000 )
                  ( -1.0000000  0.0000000  0.0000000 )


      isym = 20     120 deg rotation - cart. axis [1,-1,1]       

 cryst.   s(20) = (     0          0          1      )
                  (    -1          0          0      )
                  (     0         -1          0      )

 cart.    s(20) = (  0.0000000 -1.0000000  0.0000000 )
                  (  0.0000000  0.0000000 -1.0000000 )
                  (  1.0000000  0.0000000  0.0000000 )


      isym = 21     120 deg rotation - cart. axis [1,1,1]        

 cryst.   s(21) = (     0          1          0      )
                  (     0          0          1      )
                  (     1          0          0      )

 cart.    s(21) = (  0.0000000  0.0000000  1.0000000 )
                  (  1.0000000  0.0000000  0.0000000 )
                  (  0.0000000  1.0000000  0.0000000 )


      isym = 22     120 deg rotation - cart. axis [-1,1,-1]      

 cryst.   s(22) = (     0         -1          0      )
                  (     0          0         -1      )
                  (     1          0          0      )

 cart.    s(22) = (  0.0000000  0.0000000  1.0000000 )
                  ( -1.0000000  0.0000000  0.0000000 )
                  (  0.0000000 -1.0000000  0.0000000 )


      isym = 23     120 deg rotation - cart. axis [1,-1,-1]      

 cryst.   s(23) = (     0         -1          0      )
                  (     0          0          1      )
                  (    -1          0          0      )

 cart.    s(23) = (  0.0000000  0.0000000 -1.0000000 )
                  ( -1.0000000  0.0000000  0.0000000 )
                  (  0.0000000  1.0000000  0.0000000 )


      isym = 24     120 deg rotation - cart. axis [-1,-1,1]      

 cryst.   s(24) = (     0          1          0      )
                  (     0          0         -1      )
                  (    -1          0          0      )

 cart.    s(24) = (  0.0000000  0.0000000 -1.0000000 )
                  (  1.0000000  0.0000000  0.0000000 )
                  (  0.0000000 -1.0000000  0.0000000 )


      isym = 25     inversion                                    

 cryst.   s(25) = (    -1          0          0      )
                  (     0         -1          0      )
                  (     0          0         -1      )

 cart.    s(25) = ( -1.0000000  0.0000000  0.0000000 )
                  (  0.0000000 -1.0000000  0.0000000 )
                  (  0.0000000  0.0000000 -1.0000000 )


      isym = 26     inv. 180 deg rotation - cart. axis [0,0,1]   

 cryst.   s(26) = (     1          0          0      )
                  (     0          1          0      )
                  (     0          0         -1      )

 cart.    s(26) = (  1.0000000  0.0000000  0.0000000 )
                  (  0.0000000  1.0000000  0.0000000 )
                  (  0.0000000  0.0000000 -1.0000000 )


      isym = 27     inv. 180 deg rotation - cart. axis [0,1,0]   

 cryst.   s(27) = (     1          0          0      )
                  (     0         -1          0      )
                  (     0          0          1      )

 cart.    s(27) = (  1.0000000  0.0000000  0.0000000 )
                  (  0.0000000 -1.0000000  0.0000000 )
                  (  0.0000000  0.0000000  1.0000000 )


      isym = 28     inv. 180 deg rotation - cart. axis [1,0,0]   

 cryst.   s(28) = (    -1          0          0      )
                  (     0          1          0      )
                  (     0          0          1      )

 cart.    s(28) = ( -1.0000000  0.0000000  0.0000000 )
                  (  0.0000000  1.0000000  0.0000000 )
                  (  0.0000000  0.0000000  1.0000000 )


      isym = 29     inv. 180 deg rotation - cart. axis [1,1,0]   

 cryst.   s(29) = (     0         -1          0      )
                  (    -1          0          0      )
                  (     0          0          1      )

 cart.    s(29) = (  0.0000000 -1.0000000  0.0000000 )
                  ( -1.0000000  0.0000000  0.0000000 )
                  (  0.0000000  0.0000000  1.0000000 )


      isym = 30     inv. 180 deg rotation - cart. axis [1,-1,0]  

 cryst.   s(30) = (     0          1          0      )
                  (     1          0          0      )
                  (     0          0          1      )

 cart.    s(30) = (  0.0000000  1.0000000  0.0000000 )
                  (  1.0000000  0.0000000  0.0000000 )
                  (  0.0000000  0.0000000  1.0000000 )


      isym = 31     inv.  90 deg rotation - cart. axis [0,0,-1]  

 cryst.   s(31) = (     0          1          0      )
                  (    -1          0          0      )
                  (     0          0         -1      )

 cart.    s(31) = (  0.0000000 -1.0000000  0.0000000 )
                  (  1.0000000  0.0000000  0.0000000 )
                  (  0.0000000  0.0000000 -1.0000000 )


      isym = 32     inv.  90 deg rotation - cart. axis [0,0,1]   

 cryst.   s(32) = (     0         -1          0      )
                  (     1          0          0      )
                  (     0          0         -1      )

 cart.    s(32) = (  0.0000000  1.0000000  0.0000000 )
                  ( -1.0000000  0.0000000  0.0000000 )
                  (  0.0000000  0.0000000 -1.0000000 )


      isym = 33     inv. 180 deg rotation - cart. axis [1,0,1]   

 cryst.   s(33) = (     0          0         -1      )
                  (     0          1          0      )
                  (    -1          0          0      )

 cart.    s(33) = (  0.0000000  0.0000000 -1.0000000 )
                  (  0.0000000  1.0000000  0.0000000 )
                  ( -1.0000000  0.0000000  0.0000000 )


      isym = 34     inv. 180 deg rotation - cart. axis [-1,0,1]  

 cryst.   s(34) = (     0          0          1      )
                  (     0          1          0      )
                  (     1          0          0      )

 cart.    s(34) = (  0.0000000  0.0000000  1.0000000 )
                  (  0.0000000  1.0000000  0.0000000 )
                  (  1.0000000  0.0000000  0.0000000 )


      isym = 35     inv.  90 deg rotation - cart. axis [0,1,0]   

 cryst.   s(35) = (     0          0          1      )
                  (     0         -1          0      )
                  (    -1          0          0      )

 cart.    s(35) = (  0.0000000  0.0000000 -1.0000000 )
                  (  0.0000000 -1.0000000  0.0000000 )
                  (  1.0000000  0.0000000  0.0000000 )


      isym = 36     inv.  90 deg rotation - cart. axis [0,-1,0]  

 cryst.   s(36) = (     0          0         -1      )
                  (     0         -1          0      )
                  (     1          0          0      )

 cart.    s(36) = (  0.0000000  0.0000000  1.0000000 )
                  (  0.0000000 -1.0000000  0.0000000 )
                  ( -1.0000000  0.0000000  0.0000000 )


      isym = 37     inv. 180 deg rotation - cart. axis [0,1,1]   

 cryst.   s(37) = (     1          0          0      )
                  (     0          0         -1      )
                  (     0         -1          0      )

 cart.    s(37) = (  1.0000000  0.0000000  0.0000000 )
                  (  0.0000000  0.0000000 -1.0000000 )
                  (  0.0000000 -1.0000000  0.0000000 )


      isym = 38     inv. 180 deg rotation - cart. axis [0,1,-1]  

 cryst.   s(38) = (     1          0          0      )
                  (     0          0          1      )
                  (     0          1          0      )

 cart.    s(38) = (  1.0000000  0.0000000  0.0000000 )
                  (  0.0000000  0.0000000  1.0000000 )
                  (  0.0000000  1.0000000  0.0000000 )


      isym = 39     inv.  90 deg rotation - cart. axis [-1,0,0]  

 cryst.   s(39) = (    -1          0          0      )
                  (     0          0          1      )
                  (     0         -1          0      )

 cart.    s(39) = ( -1.0000000  0.0000000  0.0000000 )
                  (  0.0000000  0.0000000 -1.0000000 )
                  (  0.0000000  1.0000000  0.0000000 )


      isym = 40     inv.  90 deg rotation - cart. axis [1,0,0]   

 cryst.   s(40) = (    -1          0          0      )
                  (     0          0         -1      )
                  (     0          1          0      )

 cart.    s(40) = ( -1.0000000  0.0000000  0.0000000 )
                  (  0.0000000  0.0000000  1.0000000 )
                  (  0.0000000 -1.0000000  0.0000000 )


      isym = 41     inv. 120 deg rotation - cart. axis [-1,-1,-1]

 cryst.   s(41) = (     0          0         -1      )
                  (    -1          0          0      )
                  (     0         -1          0      )

 cart.    s(41) = (  0.0000000 -1.0000000  0.0000000 )
                  (  0.0000000  0.0000000 -1.0000000 )
                  ( -1.0000000  0.0000000  0.0000000 )


      isym = 42     inv. 120 deg rotation - cart. axis [-1,1,1]  

 cryst.   s(42) = (     0          0          1      )
                  (     1          0          0      )
                  (     0         -1          0      )

 cart.    s(42) = (  0.0000000  1.0000000  0.0000000 )
                  (  0.0000000  0.0000000 -1.0000000 )
                  (  1.0000000  0.0000000  0.0000000 )


      isym = 43     inv. 120 deg rotation - cart. axis [1,1,-1]  

 cryst.   s(43) = (     0          0          1      )
                  (    -1          0          0      )
                  (     0          1          0      )

 cart.    s(43) = (  0.0000000 -1.0000000  0.0000000 )
                  (  0.0000000  0.0000000  1.0000000 )
                  (  1.0000000  0.0000000  0.0000000 )


      isym = 44     inv. 120 deg rotation - cart. axis [1,-1,1]  

 cryst.   s(44) = (     0          0         -1      )
                  (     1          0          0      )
                  (     0          1          0      )

 cart.    s(44) = (  0.0000000  1.0000000  0.0000000 )
                  (  0.0000000  0.0000000  1.0000000 )
                  ( -1.0000000  0.0000000  0.0000000 )


      isym = 45     inv. 120 deg rotation - cart. axis [1,1,1]   

 cryst.   s(45) = (     0         -1          0      )
                  (     0          0         -1      )
                  (    -1          0          0      )

 cart.    s(45) = (  0.0000000  0.0000000 -1.0000000 )
                  ( -1.0000000  0.0000000  0.0000000 )
                  (  0.0000000 -1.0000000  0.0000000 )


      isym = 46     inv. 120 deg rotation - cart. axis [-1,1,-1] 

 cryst.   s(46) = (     0          1          0      )
                  (     0          0          1      )
                  (    -1          0          0      )

 cart.    s(46) = (  0.0000000  0.0000000 -1.0000000 )
                  (  1.0000000  0.0000000  0.0000000 )
                  (  0.0000000  1.0000000  0.0000000 )


      isym = 47     inv. 120 deg rotation - cart. axis [1,-1,-1] 

 cryst.   s(47) = (     0          1          0      )
                  (     0          0         -1      )
                  (     1          0          0      )

 cart.    s(47) = (  0.0000000  0.0000000  1.0000000 )
                  (  1.0000000  0.0000000  0.0000000 )
                  (  0.0000000 -1.0000000  0.0000000 )


      isym = 48     inv. 120 deg rotation - cart. axis [-1,-1,1] 

 cryst.   s(48) = (     0         -1          0      )
                  (     0          0          1      )
                  (     1          0          0      )

 cart.    s(48) = (  0.0000000  0.0000000  1.0000000 )
                  ( -1.0000000  0.0000000  0.0000000 )
                  (  0.0000000  1.0000000  0.0000000 )


   Cartesian axes

     site n.     atom                  positions (alat units)
         1           Cs  tau(   1) = (   0.5000000   0.5000000   0.5000000  )
         2           Pb  tau(   2) = (   0.0000000   0.0000000   0.0000000  )
         3           Cl  tau(   3) = (   0.5000000   0.0000000   0.0000000  )
         4           Cl  tau(   4) = (   0.0000000   0.5000000   0.0000000  )
         5           Cl  tau(   5) = (   0.0000000   0.0000000   0.5000000  )

   Crystallographic axes

     site n.     atom                  positions (cryst. coord.)
         1           Cs  tau(   1) = (  0.5000000  0.5000000  0.5000000  )
         2           Pb  tau(   2) = (  0.0000000  0.0000000  0.0000000  )
         3           Cl  tau(   3) = (  0.5000000  0.0000000  0.0000000  )
         4           Cl  tau(   4) = (  0.0000000  0.5000000  0.0000000  )
         5           Cl  tau(   5) = (  0.0000000  0.0000000  0.5000000  )

     number of k points=    10
                       cart. coord. in units 2pi/alat
        k(    1) = (   0.0000000   0.0000000   0.0000000), wk =   0.0156250
        k(    2) = (   0.0000000   0.0000000   0.2500000), wk =   0.0937500
        k(    3) = (   0.0000000   0.0000000   0.5000000), wk =   0.0468750
        k(    4) = (   0.0000000   0.2500000   0.2500000), wk =   0.1875000
        k(    5) = (   0.0000000   0.2500000   0.5000000), wk =   0.1875000
        k(    6) = (   0.0000000   0.5000000   0.5000000), wk =   0.0468750
        k(    7) = (   0.2500000   0.2500000   0.2500000), wk =   0.1250000
        k(    8) = (   0.2500000   0.2500000   0.5000000), wk =   0.1875000
        k(    9) = (   0.2500000   0.5000000   0.5000000), wk =   0.0937500
        k(   10) = (   0.5000000   0.5000000   0.5000000), wk =   0.0156250

                       cryst. coord.
        k(    1) = (   0.0000000   0.0000000   0.0000000), wk =   0.0156250
        k(    2) = (   0.0000000   0.0000000   0.2500000), wk =   0.0937500
        k(    3) = (   0.0000000   0.0000000   0.5000000), wk =   0.0468750
        k(    4) = (   0.0000000   0.2500000   0.2500000), wk =   0.1875000
        k(    5) = (   0.0000000   0.2500000   0.5000000), wk =   0.1875000
        k(    6) = (   0.0000000   0.5000000   0.5000000), wk =   0.0468750
        k(    7) = (   0.2500000   0.2500000   0.2500000), wk =   0.1250000
        k(    8) = (   0.2500000   0.2500000   0.5000000), wk =   0.1875000
        k(    9) = (   0.2500000   0.5000000   0.5000000), wk =   0.0937500
        k(   10) = (   0.5000000   0.5000000   0.5000000), wk =   0.0156250

     Dense  grid:    14243 G-vectors     FFT dimensions: (  32,  32,  32)

     Dynamical RAM for                 wfc:       1.02 MB

     Dynamical RAM for     wfc (w. buffer):       1.02 MB

     Dynamical RAM for           str. fact:       0.04 MB

     Dynamical RAM for           local pot:       0.00 MB

     Dynamical RAM for          nlocal pot:       0.34 MB

     Dynamical RAM for                qrad:      25.40 MB

     Dynamical RAM for          rho,v,vnew:       0.35 MB

     Dynamical RAM for           G-vectors:       0.06 MB

     Dynamical RAM for          h,s,v(r/c):      65.92 MB

     Dynamical RAM for          <psi|beta>:       1.81 MB

     Dynamical RAM for                 psi:       4.06 MB

     Dynamical RAM for                hpsi:       4.06 MB

     Dynamical RAM for      wfcinit/wfcrot:       3.59 MB

     Estimated static dynamical RAM per process >      27.38 MB

     Estimated max dynamical RAM per process >     103.24 MB

     Estimated total dynamical RAM >       6.45 GB

     Check: negative core charge=   -0.000022

     The potential is recalculated from file :
     ./cspbcl3.save/charge-density


     negative rho (up, down):  2.734E-03 0.000E+00
     Starting wfcs are   52 randomized atomic wfcs +  248 random wfcs

     Band Structure Calculation
     Davidson diagonalization with overlap

     Computing kpt #:     1
     total cpu time spent up to now is       39.1 secs

     Computing kpt #:     2
     total cpu time spent up to now is       68.9 secs

     Computing kpt #:     3
     total cpu time spent up to now is       94.9 secs

     ethr =  2.27E-09,  avg # of iterations = 16.5

     total cpu time spent up to now is       94.9 secs

     End of band structure calculation

          k = 0.0000 0.0000 0.0000 (  1791 PWs)   bands (ev):

   -17.1001 -17.1001 -10.5547 -10.5547 -10.3370 -10.3370 -10.3370 -10.3370
    -8.5937  -8.5937  -8.5937  -8.5937  -7.0361  -7.0361  -6.8298  -6.8298
    -6.8298  -6.8298  -4.9048  -4.9048  -3.3543  -3.3543  -3.3543  -3.3543
    -2.1877  -2.1877  -0.7118  -0.7118  -0.3249  -0.3249  -0.3249  -0.3249
     1.5977   1.5977   1.5977   1.5977   1.6261   1.6261   1.6551   1.6551
     1.7793   1.7793   1.7793   1.7793   7.5936   7.5936   8.4665   8.4665
     8.4665   8.4665   9.1135   9.1135   9.5605   9.5605   9.5605   9.5605
     9.6226   9.6226  11.0021  11.0021  11.0021  11.0021  12.8935  12.8935
    12.8935  12.8935  12.9844  12.9844  14.4340  14.4340  15.1819  15.1819
    15.1819  15.1819  15.2916  15.2916  15.2916  15.2916  15.8758  15.8758
    16.8817  16.8817  16.8817  16.8817  16.9042  16.9042  17.6802  17.6802
    17.6802  17.6802  18.0193  18.0193  18.0193  18.0193  18.0752  18.0752
    18.2274  18.2274  18.4676  18.4676  18.4676  18.4676  18.9746  18.9746
    18.9756  18.9756  18.9756  18.9756  19.0916  19.0916  19.1704  19.1704
    20.7439  20.7439  20.7490  20.7490  20.7490  20.7490  22.2227  22.2227
    22.2227  22.2227  22.2246  22.2246  22.3938  22.3938  23.4399  23.4399
    23.4399  23.4399  23.9911  23.9911  24.0571  24.0571  24.6208  24.6208
    24.6208  24.6208  25.2994  25.2994  25.5373  25.5373  25.5373  25.5373
    26.6618  26.6618  26.6618  26.6618  26.6834  26.6834  26.7036  26.7036
    26.7043  26.7043  26.7043  26.7043  28.6761  28.6761  28.6762  28.6762
    28.6762  28.6762  28.7680  28.7680  28.7680  28.7680  28.9282  28.9282
    29.2675  29.2675  29.4708  29.4708  29.4708  29.4708  30.4020  30.4020
    30.4020  30.4020  30.4775  30.4775  30.4795  30.4795  30.4795  30.4795
    31.0698  31.0698  31.0698  31.0698  31.0820  31.0820  32.7645  32.7645
    32.7645  32.7645  33.4054  33.4054  33.4668  33.4668  33.5794  33.5794
    33.5794  33.5794  33.6105  33.6105  33.8552  33.8552  33.8552  33.8552
    35.4224  35.4224  35.7846  35.7846  35.7846  35.7846  35.7917  35.7917
    36.6178  36.6178  36.7427  36.7427  36.7427  36.7427  36.8705  36.8705
    36.8705  36.8705  38.0498  38.0498  39.1983  39.1983  39.6194  39.6194
    40.3759  40.3759  40.3759  40.3759  40.5798  40.5798  40.5798  40.5798
    40.7205  40.7205  40.7205  40.7205  40.7760  40.7760  41.0296  41.0296
    41.0307  41.0307  41.0307  41.0307  42.1586  42.1586  42.1586  42.1586
    42.5083  42.5083  42.5677  42.5677  42.5677  42.5677  42.6250  42.6250
    42.6250  42.6250  42.6396  42.6396  43.4782  43.4782  43.4782  43.4782
    43.8169  43.8169  43.8169  43.8169  44.1246  44.1246  44.7243  44.7243
    45.0231  45.0231  45.0232  45.0232  45.0232  45.0232  45.2666  45.2666
    45.8859  45.8859  45.8859  45.8859  46.4085  46.4085  46.4085  46.4085
    46.4634  46.4634  46.5811  46.5811

          k = 0.0000 0.0000 0.2500 (  1803 PWs)   bands (ev):

   -17.0993 -17.0993 -10.5058 -10.5058 -10.3189 -10.3189 -10.2257 -10.2257
    -8.7594  -8.7594  -8.6775  -8.6775  -7.0892  -7.0892  -7.0445  -7.0445
    -6.9351  -6.9351  -4.9018  -4.9018  -3.3446  -3.3446  -3.3412  -3.3412
    -2.7997  -2.7997  -0.5628  -0.5628  -0.2946  -0.2946   0.6719   0.6719
     1.5467   1.5467   1.5513   1.5513   1.6154   1.6154   1.6184   1.6184
     1.7248   1.7248   1.8968   1.8968   8.0659   8.0659   8.3949   8.3949
     8.8644   8.8644   8.9120   8.9120   9.7412   9.7412   9.7627   9.7627
     9.8146   9.8146  10.4749  10.4749  10.9983  10.9983  12.2066  12.2066
    12.7713  12.7713  12.9000  12.9000  13.2074  13.2074  14.0120  14.0120
    14.6453  14.6453  14.9462  14.9462  15.0072  15.0072  15.7552  15.7552
    16.2983  16.2983  16.4159  16.4159  16.9677  16.9677  17.6121  17.6121
    18.1635  18.1635  18.2438  18.2438  18.2899  18.2899  18.3454  18.3454
    18.3693  18.3693  18.4099  18.4099  18.5915  18.5915  18.9648  18.9648
    19.4883  19.4883  19.7626  19.7626  19.8393  19.8393  20.7472  20.7472
    21.3511  21.3511  21.5598  21.5598  21.6607  21.6607  21.8596  21.8596
    22.7776  22.7776  22.7934  22.7934  22.9156  22.9156  23.0097  23.0097
    23.2255  23.2255  23.4052  23.4052  23.6446  23.6446  23.8084  23.8084
    24.5658  24.5658  24.7368  24.7368  25.2442  25.2442  25.2650  25.2650
    25.5447  25.5447  26.0660  26.0660  26.7794  26.7794  26.8280  26.8280
    27.1601  27.1601  27.2403  27.2403  27.3091  27.3091  27.6410  27.6410
    27.9331  27.9331  28.0512  28.0512  29.2049  29.2049  29.6749  29.6749
    29.6861  29.6861  29.7130  29.7130  30.3887  30.3887  30.6294  30.6294
    30.7322  30.7322  31.0160  31.0160  31.3486  31.3486  31.7375  31.7375
    31.8804  31.8804  31.9479  31.9479  32.0116  32.0116  32.0875  32.0875
    32.1398  32.1398  32.4591  32.4591  32.6059  32.6059  32.6351  32.6351
    33.4272  33.4272  33.9556  33.9556  35.4658  35.4658  35.5415  35.5415
    35.5563  35.5563  35.6470  35.6470  36.0284  36.0284  36.3086  36.3086
    36.4547  36.4547  36.6294  36.6294  36.6750  36.6750  37.0089  37.0089
    37.6796  37.6796  38.1451  38.1451  38.2303  38.2303  38.4296  38.4296
    38.5601  38.5601  38.6563  38.6563  39.2624  39.2624  39.7859  39.7859
    40.2357  40.2357  40.2386  40.2386  40.3006  40.3006  40.4344  40.4344
    41.0442  41.0442  41.1560  41.1560  41.5832  41.5832  41.6271  41.6271
    41.8223  41.8223  42.1156  42.1156  42.3196  42.3196  42.3302  42.3302
    42.4779  42.4779  43.0682  43.0682  43.3799  43.3799  43.4766  43.4766
    43.6063  43.6063  44.0656  44.0656  44.0985  44.0985  44.1518  44.1518
    44.4909  44.4909  44.9552  44.9552  45.1860  45.1860  45.2125  45.2125
    45.4059  45.4059  45.7775  45.7775  45.8968  45.8968  46.0410  46.0410
    46.1363  46.1363  46.1748  46.1748

          k = 0.0000 0.0000 0.5000 (  1800 PWs)   bands (ev):

   -17.0980 -17.0980 -10.4927 -10.4927 -10.2650 -10.2650 -10.0815 -10.0815
    -8.8287  -8.8287  -8.7213  -8.7213  -7.1090  -7.1090  -7.1064  -7.1064
    -6.9880  -6.9880  -4.8936  -4.8936  -3.3291  -3.3291  -3.3254  -3.3254
    -3.1185  -3.1185  -0.5128  -0.5128  -0.2637  -0.2637   1.0450   1.0450
     1.4938   1.4938   1.5075   1.5075   1.5866   1.5866   1.6050   1.6050
     1.6451   1.6451   2.8159   2.8159   6.9804   6.9804   8.8255   8.8255
     9.3585   9.3585   9.4687   9.4687   9.8646   9.8646   9.9017   9.9017
     9.9978   9.9978  11.0411  11.0411  11.4497  11.4497  11.4602  11.4602
    11.5811  11.5811  12.1226  12.1226  12.2739  12.2739  13.0246  13.0246
    13.9892  13.9892  14.9391  14.9391  15.0159  15.0159  15.7587  15.7587
    15.8462  15.8462  16.2353  16.2353  17.2256  17.2256  17.5845  17.5845
    17.9236  17.9236  18.0796  18.0796  18.7725  18.7725  18.8292  18.8292
    18.9692  18.9692  18.9910  18.9910  19.2742  19.2742  19.7020  19.7020
    19.7799  19.7799  19.9896  19.9896  20.0076  20.0076  20.0133  20.0133
    20.4966  20.4966  21.0259  21.0259  21.8056  21.8056  23.2042  23.2042
    23.3514  23.3514  23.3890  23.3890  23.6979  23.6979  23.9617  23.9617
    23.9866  23.9866  24.1224  24.1224  24.3528  24.3528  24.3982  24.3982
    24.4196  24.4196  24.5888  24.5888  24.6419  24.6419  24.9137  24.9137
    25.1185  25.1185  25.1916  25.1916  25.1988  25.1988  25.7141  25.7141
    26.1194  26.1194  26.1686  26.1686  26.8491  26.8491  27.5061  27.5061
    27.5104  27.5104  29.2358  29.2358  29.5314  29.5314  29.6279  29.6279
    30.2095  30.2095  30.2704  30.2704  30.9952  30.9952  31.0092  31.0092
    31.2651  31.2651  31.3226  31.3226  31.3609  31.3609  31.4813  31.4813
    31.4910  31.4910  32.2346  32.2346  32.2543  32.2543  32.4038  32.4038
    33.1440  33.1440  33.1582  33.1582  33.3121  33.3121  33.7441  33.7441
    33.7512  33.7512  33.9919  33.9919  33.9937  33.9937  34.6202  34.6202
    35.0458  35.0458  35.5039  35.5039  35.5240  35.5240  36.6936  36.6936
    36.7140  36.7140  36.8317  36.8317  36.8715  36.8715  37.3019  37.3019
    37.4500  37.4500  37.9124  37.9124  38.0110  38.0110  38.4814  38.4814
    38.5353  38.5353  38.5903  38.5903  38.9182  38.9182  39.1130  39.1130
    39.3661  39.3661  39.6505  39.6505  39.8192  39.8192  39.8412  39.8412
    41.3204  41.3204  41.5776  41.5776  41.6056  41.6056  41.6181  41.6181
    41.7496  41.7496  41.8004  41.8004  41.8304  41.8304  41.8360  41.8360
    42.1146  42.1146  42.2243  42.2243  42.6781  42.6781  42.6897  42.6897
    42.9780  42.9780  43.4736  43.4736  43.4749  43.4749  43.4988  43.4988
    44.3973  44.3973  44.5993  44.5993  44.6079  44.6079  44.7579  44.7579
    45.1717  45.1717  45.3394  45.3394  45.6877  45.6877  45.6943  45.6943
    46.0787  46.0787  46.2136  46.2136

          k = 0.0000 0.2500 0.2500 (  1799 PWs)   bands (ev):

   -17.0981 -17.0981 -10.4518 -10.4518 -10.2361 -10.2361 -10.2289 -10.2289
    -8.7839  -8.7839  -8.6830  -8.6830  -7.0913  -7.0913  -7.0701  -7.0701
    -6.9586  -6.9586  -4.8999  -4.8999  -3.3548  -3.3548  -3.3375  -3.3375
    -3.3012  -3.3012  -0.3942  -0.3942   0.4309   0.4309   0.8204   0.8204
     1.3568   1.3568   1.5384   1.5384   1.6001   1.6001   1.6618   1.6618
     1.8506   1.8506   2.0619   2.0619   7.7412   7.7412   8.5724   8.5724
     9.0604   9.0604   9.2384   9.2384   9.4310   9.4310   9.7086   9.7086
    10.0559  10.0559  10.4527  10.4527  10.7130  10.7130  11.9872  11.9872
    12.1917  12.1917  13.2654  13.2654  13.4103  13.4103  13.5923  13.5923
    13.8268  13.8268  14.1720  14.1720  15.3870  15.3870  15.4673  15.4673
    15.7753  15.7753  16.0239  16.0239  17.0204  17.0204  17.3269  17.3269
    17.3622  17.3622  18.0937  18.0937  18.2588  18.2588  18.3618  18.3618
    18.7079  18.7079  18.9933  18.9933  19.8457  19.8457  19.9067  19.9067
    20.0312  20.0312  20.0491  20.0491  20.1207  20.1207  20.4205  20.4205
    21.2329  21.2329  21.6373  21.6373  21.6775  21.6775  22.1120  22.1120
    22.1571  22.1571  22.7266  22.7266  22.9655  22.9655  23.3809  23.3809
    23.4146  23.4146  23.4811  23.4811  23.9135  23.9135  24.0953  24.0953
    24.3132  24.3132  24.4264  24.4264  25.0739  25.0739  25.5992  25.5992
    26.2103  26.2103  26.5018  26.5018  26.6022  26.6022  26.7987  26.7987
    27.3554  27.3554  27.4544  27.4544  27.5693  27.5693  27.6622  27.6622
    27.8763  27.8763  28.0616  28.0616  28.6210  28.6210  29.0876  29.0876
    29.9776  29.9776  30.0413  30.0413  30.1308  30.1308  30.2881  30.2881
    30.6119  30.6119  30.8263  30.8263  31.1064  31.1064  31.5943  31.5943
    31.6740  31.6740  31.8184  31.8184  32.0365  32.0365  32.4714  32.4714
    32.9332  32.9332  33.4989  33.4989  33.5530  33.5530  34.3126  34.3126
    34.4028  34.4028  34.4044  34.4044  34.5219  34.5219  34.6365  34.6365
    35.2219  35.2219  35.5620  35.5620  35.7334  35.7334  35.8668  35.8668
    36.2663  36.2663  36.4204  36.4204  36.7628  36.7628  36.9584  36.9584
    37.4537  37.4537  37.6303  37.6303  37.6693  37.6693  38.1593  38.1593
    38.5089  38.5089  39.0730  39.0730  39.3072  39.3072  39.3294  39.3294
    39.7646  39.7646  40.0043  40.0043  40.1213  40.1213  40.2933  40.2933
    40.4314  40.4314  40.5270  40.5270  41.0141  41.0141  41.2919  41.2919
    41.3535  41.3535  41.7257  41.7257  41.8992  41.8992  42.2039  42.2039
    42.5176  42.5176  42.8826  42.8826  43.2441  43.2441  43.3041  43.3041
    43.7290  43.7290  43.9616  43.9616  44.0884  44.0884  44.1416  44.1416
    44.2983  44.2983  44.5075  44.5075  44.7152  44.7152  44.8054  44.8054
    45.0448  45.0448  45.4799  45.4799  45.7274  45.7274  45.7372  45.7372
    46.3489  46.3489  46.5218  46.5218

          k = 0.0000 0.2500 0.5000 (  1776 PWs)   bands (ev):

   -17.0963 -17.0963 -10.4076 -10.4076 -10.1947 -10.1947 -10.0652 -10.0652
    -8.6866  -8.6866  -8.6579  -8.6579  -7.0170  -7.0170  -6.9852  -6.9852
    -6.9340  -6.9340  -4.8930  -4.8930  -3.6118  -3.6118  -3.3450  -3.3450
    -3.3235  -3.3235  -0.3323  -0.3323   0.6843   0.6843   0.9629   0.9629
     1.3772   1.3772   1.5126   1.5126   1.5389   1.5389   1.6740   1.6740
     1.8628   1.8628   2.9943   2.9943   6.6529   6.6529   8.4912   8.4912
     9.3584   9.3584   9.5742   9.5742   9.6994   9.6994   9.8218   9.8218
    10.2666  10.2666  10.6851  10.6851  10.9397  10.9397  11.0354  11.0354
    12.1872  12.1872  12.4342  12.4342  12.9045  12.9045  13.0999  13.0999
    13.6770  13.6770  14.5637  14.5637  14.8038  14.8038  15.6396  15.6396
    16.1769  16.1769  16.4103  16.4103  16.6617  16.6617  16.7361  16.7361
    17.1171  17.1171  17.2006  17.2006  18.2045  18.2045  18.8200  18.8200
    19.2746  19.2746  19.9081  19.9081  19.9394  19.9394  20.1198  20.1198
    20.2132  20.2132  20.2935  20.2935  20.3620  20.3620  20.6006  20.6006
    21.0855  21.0855  21.2358  21.2358  21.5785  21.5785  22.0943  22.0943
    22.2189  22.2189  22.5701  22.5701  22.9097  22.9097  23.1260  23.1260
    23.5550  23.5550  23.6558  23.6558  24.4453  24.4453  24.6979  24.6979
    24.7859  24.7859  24.9406  24.9406  25.3744  25.3744  25.5844  25.5844
    25.9199  25.9199  26.1487  26.1487  26.4953  26.4953  27.1687  27.1687
    27.4269  27.4269  27.6792  27.6792  27.8084  27.8084  28.2876  28.2876
    28.3765  28.3765  28.5067  28.5067  28.8102  28.8102  29.2662  29.2662
    29.6945  29.6945  29.9738  29.9738  30.1677  30.1677  30.2088  30.2088
    30.2748  30.2748  30.5843  30.5843  30.7752  30.7752  31.2666  31.2666
    31.3382  31.3382  31.7085  31.7085  32.5127  32.5127  32.7207  32.7207
    32.8112  32.8112  32.9911  32.9911  33.9271  33.9271  34.1378  34.1378
    34.4863  34.4863  34.6862  34.6862  34.9717  34.9717  35.0614  35.0614
    35.0816  35.0816  35.7373  35.7373  35.9287  35.9287  36.2350  36.2350
    36.3334  36.3334  36.3746  36.3746  36.5931  36.5931  36.9362  36.9362
    37.3580  37.3580  37.4630  37.4630  37.7051  37.7051  37.8939  37.8939
    38.1065  38.1065  38.2258  38.2258  39.0128  39.0128  39.2366  39.2366
    39.3072  39.3072  39.5606  39.5606  39.6775  39.6775  40.1478  40.1478
    40.5287  40.5287  40.7888  40.7888  41.0377  41.0377  41.0728  41.0728
    41.1957  41.1957  41.5627  41.5627  42.1182  42.1182  42.3019  42.3019
    42.3770  42.3770  42.6387  42.6387  42.7548  42.7548  42.7973  42.7973
    42.8666  42.8666  43.3232  43.3232  43.7692  43.7692  44.1146  44.1146
    44.3023  44.3023  44.4558  44.4558  44.7724  44.7724  45.0214  45.0214
    45.0323  45.0323  45.0641  45.0641  45.2787  45.2787  45.5365  45.5365
    45.7539  45.7539  46.3616  46.3616

          k = 0.0000 0.5000 0.5000 (  1772 PWs)   bands (ev):

   -17.0952 -17.0952 -10.3716 -10.3716 -10.0722 -10.0722 -10.0559 -10.0559
    -8.7547  -8.7547  -8.6571  -8.6571  -7.0593  -7.0593  -7.0028  -7.0028
    -6.9577  -6.9577  -4.8991  -4.8991  -3.9258  -3.9258  -3.3681  -3.3681
    -3.3239  -3.3239  -0.2524  -0.2524   0.8702   0.8702   1.3602   1.3602
     1.4334   1.4334   1.4619   1.4619   1.4735   1.4735   1.8842   1.8842
     2.0368   2.0368   3.5973   3.5973   6.0001   6.0001   7.3893   7.3893
     9.3127   9.3127   9.6816   9.6816   9.9254   9.9254  10.3898  10.3898
    10.5782  10.5782  10.6021  10.6021  11.0240  11.0240  11.1361  11.1361
    11.4104  11.4104  12.2066  12.2066  12.7513  12.7513  12.8793  12.8793
    14.4674  14.4674  14.4889  14.4889  14.7881  14.7881  15.1873  15.1873
    15.6844  15.6844  15.7009  15.7009  17.0629  17.0629  17.6420  17.6420
    17.6860  17.6860  17.9093  17.9093  18.4066  18.4066  18.5749  18.5749
    18.7162  18.7162  18.7568  18.7568  19.1103  19.1103  19.3579  19.3579
    19.4052  19.4052  19.4375  19.4375  19.9332  19.9332  21.1840  21.1840
    21.2912  21.2912  21.3010  21.3010  22.2164  22.2164  22.2422  22.2422
    22.5695  22.5695  22.6696  22.6696  23.2756  23.2756  23.4287  23.4287
    23.7584  23.7584  24.5878  24.5878  24.7210  24.7210  25.1408  25.1408
    25.4523  25.4523  25.6154  25.6154  26.0100  26.0100  26.1850  26.1850
    26.5534  26.5534  26.5910  26.5910  26.9716  26.9716  26.9961  26.9961
    27.0818  27.0818  27.0888  27.0888  27.1901  27.1901  27.7896  27.7896
    28.1241  28.1241  28.4340  28.4340  28.4995  28.4995  29.9812  29.9812
    30.2327  30.2327  30.3512  30.3512  31.0667  31.0667  31.0923  31.0923
    31.2738  31.2738  31.3527  31.3527  31.3577  31.3577  31.4544  31.4544
    31.5823  31.5823  31.7497  31.7497  31.7920  31.7920  31.9154  31.9154
    32.7500  32.7500  32.8460  32.8460  32.9782  32.9782  33.4108  33.4108
    33.6300  33.6300  33.8125  33.8125  34.0204  34.0204  34.0645  34.0645
    34.4280  34.4280  34.4280  34.4280  34.5762  34.5762  36.1575  36.1575
    36.3073  36.3073  36.3188  36.3188  36.3422  36.3422  36.4270  36.4270
    36.6004  36.6004  37.6325  37.6325  38.5739  38.5739  38.7430  38.7430
    39.0441  39.0441  39.1249  39.1249  39.1749  39.1749  39.2017  39.2017
    39.4169  39.4169  39.5169  39.5169  40.1165  40.1165  40.1223  40.1223
    40.7396  40.7396  41.2833  41.2833  41.6660  41.6660  41.7042  41.7042
    41.9343  41.9343  41.9415  41.9415  42.4592  42.4592  42.5442  42.5442
    42.5751  42.5751  42.6309  42.6309  42.8084  42.8084  42.8696  42.8696
    43.1836  43.1836  43.2569  43.2569  43.9138  43.9138  44.0825  44.0825
    44.1229  44.1229  44.2320  44.2320  44.3288  44.3288  44.6817  44.6817
    44.7701  44.7701  44.9774  44.9774  45.0582  45.0582  45.0590  45.0590
    45.1749  45.1749  45.2226  45.2226

          k = 0.2500 0.2500 0.2500 (  1800 PWs)   bands (ev):

   -17.0972 -17.0972 -10.3526 -10.3526 -10.2052 -10.2052 -10.1999 -10.1999
    -8.8013  -8.8013  -8.8006  -8.8006  -7.1560  -7.1560  -7.0953  -7.0953
    -7.0216  -7.0216  -4.9068  -4.9068  -3.7852  -3.7852  -3.3678  -3.3678
    -3.3344  -3.3344   0.3793   0.3793   0.5838   0.5838   0.8831   0.8831
     1.3241   1.3241   1.3355   1.3355   1.7789   1.7789   1.8315   1.8315
     1.8677   1.8677   2.2062   2.2062   7.3011   7.3011   8.5544   8.5544
     8.6633   8.6633   9.2016   9.2016   9.5927   9.5927   9.6418   9.6418
    10.4116  10.4116  10.5268  10.5268  10.7256  10.7256  11.5435  11.5435
    12.6532  12.6532  12.8050  12.8050  13.2779  13.2779  13.2982  13.2982
    13.4983  13.4983  14.7563  14.7563  14.8706  14.8706  14.9385  14.9385
    16.0931  16.0931  16.3132  16.3132  16.3694  16.3694  17.3882  17.3882
    17.4077  17.4077  18.0343  18.0343  18.3235  18.3235  18.8409  18.8409
    18.9453  18.9453  19.1442  19.1442  19.3643  19.3643  19.3728  19.3728
    19.6027  19.6027  19.7659  19.7659  19.8805  19.8805  20.0610  20.0610
    21.3830  21.3830  21.6603  21.6603  22.1094  22.1094  22.5524  22.5524
    22.8439  22.8439  22.8449  22.8449  23.3788  23.3788  23.5188  23.5188
    23.7674  23.7674  23.8528  23.8528  23.9519  23.9519  24.4810  24.4810
    24.9724  24.9724  25.1639  25.1639  25.3466  25.3466  25.3535  25.3535
    26.1216  26.1216  26.1733  26.1733  26.3947  26.3947  26.4226  26.4226
    26.4471  26.4471  26.5322  26.5322  27.2788  27.2788  27.3736  27.3736
    28.3088  28.3088  29.0876  29.0876  29.1276  29.1276  29.3256  29.3256
    29.9830  29.9830  30.3420  30.3420  30.3793  30.3793  30.8493  30.8493
    30.8751  30.8751  31.2473  31.2473  31.6283  31.6283  31.7531  31.7531
    32.4153  32.4153  32.5916  32.5916  32.7091  32.7091  32.7521  32.7521
    32.8722  32.8722  33.4890  33.4890  33.7502  33.7502  33.8459  33.8459
    33.8902  33.8902  34.1618  34.1618  34.2035  34.2035  34.7135  34.7135
    34.8189  34.8189  35.1662  35.1662  35.2265  35.2265  35.6474  35.6474
    35.6558  35.6558  35.7371  35.7371  36.4657  36.4657  36.9958  36.9958
    37.0053  37.0053  37.0526  37.0526  37.4981  37.4981  38.0221  38.0221
    38.1055  38.1055  38.7120  38.7120  38.8052  38.8052  39.2668  39.2668
    39.4601  39.4601  39.6434  39.6434  39.6629  39.6629  39.7462  39.7462
    39.8266  39.8266  40.3081  40.3081  40.9931  40.9931  41.0276  41.0276
    41.8633  41.8633  42.2646  42.2646  42.2817  42.2817  42.2971  42.2971
    42.8042  42.8042  42.9089  42.9089  42.9348  42.9348  43.3159  43.3159
    43.3162  43.3162  43.3498  43.3498  43.8278  43.8278  43.9477  43.9477
    44.0044  44.0044  44.6037  44.6037  44.7017  44.7017  44.7051  44.7051
    44.8940  44.8940  44.9233  44.9233  45.2018  45.2018  45.2641  45.2641
    45.7115  45.7115  46.6292  46.6292

          k = 0.2500 0.2500 0.5000 (  1784 PWs)   bands (ev):

   -17.0958 -17.0958 -10.2807 -10.2807 -10.2065 -10.2065 -10.0708 -10.0708
    -8.8150  -8.8150  -8.7192  -8.7192  -7.1187  -7.1187  -7.0560  -7.0560
    -7.0110  -7.0110  -4.9088  -4.9088  -4.0868  -4.0868  -3.3719  -3.3719
    -3.3487  -3.3487   0.5415   0.5415   0.8922   0.8922   0.9973   0.9973
     1.2077   1.2077   1.4443   1.4443   1.7570   1.7570   1.8215   1.8215
     1.9048   1.9048   3.1444   3.1444   6.3272   6.3272   7.9983   7.9983
     8.4715   8.4715   9.4517   9.4517   9.9567   9.9567  10.0196  10.0196
    10.4408  10.4408  10.4867  10.4867  10.7818  10.7818  11.3789  11.3789
    12.1541  12.1541  12.6608  12.6608  12.7949  12.7949  13.3880  13.3880
    13.9844  13.9844  14.1254  14.1254  14.9223  14.9223  15.9208  15.9208
    16.0059  16.0059  16.3077  16.3077  16.5830  16.5830  16.7075  16.7075
    17.1030  17.1030  17.3771  17.3771  18.0069  18.0069  18.4596  18.4596
    18.5231  18.5231  18.6389  18.6389  18.9291  18.9291  20.2628  20.2628
    20.4020  20.4020  20.6448  20.6448  20.7885  20.7885  20.8109  20.8109
    20.9992  20.9992  21.6119  21.6119  21.7679  21.7679  21.8448  21.8448
    22.3821  22.3821  22.6474  22.6474  22.9683  22.9683  23.2493  23.2493
    23.4589  23.4589  23.7473  23.7473  24.4319  24.4319  24.6857  24.6857
    24.8845  24.8845  25.3407  25.3407  25.4151  25.4151  25.7240  25.7240
    26.2013  26.2013  26.5066  26.5066  26.9909  26.9909  27.1653  27.1653
    27.8517  27.8517  28.1580  28.1580  28.4460  28.4460  28.8684  28.8684
    28.8973  28.8973  28.9282  28.9282  29.1013  29.1013  29.1380  29.1380
    29.4066  29.4066  30.0475  30.0475  30.0803  30.0803  30.5653  30.5653
    30.8241  30.8241  30.8690  30.8690  31.0298  31.0298  31.0505  31.0505
    31.1309  31.1309  31.9067  31.9067  32.2919  32.2919  32.7715  32.7715
    33.3988  33.3988  33.4315  33.4315  33.5796  33.5796  33.7289  33.7289
    34.2253  34.2253  34.4756  34.4756  34.6530  34.6530  34.7204  34.7204
    35.1270  35.1270  35.1856  35.1856  35.3457  35.3457  36.1001  36.1001
    36.3717  36.3717  36.5825  36.5825  36.6670  36.6670  36.7495  36.7495
    36.8246  36.8246  37.2080  37.2080  37.4546  37.4546  37.7137  37.7137
    37.8151  37.8151  38.0246  38.0246  38.4422  38.4422  38.4428  38.4428
    38.7530  38.7530  38.8634  38.8634  39.0596  39.0596  39.1202  39.1202
    39.4804  39.4804  40.1051  40.1051  40.3765  40.3765  40.8498  40.8498
    41.2070  41.2070  41.5312  41.5312  42.0038  42.0038  42.2965  42.2965
    42.3432  42.3432  42.3607  42.3607  43.2318  43.2318  43.2710  43.2710
    43.3851  43.3851  43.8101  43.8101  43.8641  43.8641  43.9470  43.9470
    44.5096  44.5096  44.5353  44.5353  44.5868  44.5868  45.1218  45.1218
    45.2903  45.2903  45.3527  45.3527  45.8495  45.8495  45.8653  45.8653
    45.9312  45.9312  46.0000  46.0000

          k = 0.2500 0.5000 0.5000 (  1788 PWs)   bands (ev):

   -17.0951 -17.0951 -10.2351 -10.2351 -10.0818 -10.0818 -10.0653 -10.0653
    -8.9226  -8.9226  -8.7893  -8.7893  -7.2006  -7.2006  -7.1117  -7.1117
    -7.0760  -7.0760  -4.9232  -4.9232  -4.4016  -4.4016  -3.3972  -3.3972
    -3.3730  -3.3730   0.8122   0.8122   0.9889   0.9889   1.1761   1.1761
     1.1892   1.1892   1.7934   1.7934   1.8311   1.8311   1.8859   1.8859
     2.0441   2.0441   3.7483   3.7483   5.6876   5.6876   7.0536   7.0536
     7.9851   7.9851   9.7252   9.7252   9.9086   9.9086  10.1363  10.1363
    10.1448  10.1448  10.4354  10.4354  11.2061  11.2061  11.7164  11.7164
    11.8605  11.8605  12.6212  12.6212  13.0559  13.0559  13.0794  13.0794
    13.8046  13.8046  14.8514  14.8514  15.1929  15.1929  15.2465  15.2465
    16.4786  16.4786  16.5010  16.5010  16.7754  16.7754  16.7786  16.7786
    17.2669  17.2669  17.2781  17.2781  17.9360  17.9360  17.9980  17.9980
    18.4657  18.4657  18.6283  18.6283  18.6733  18.6733  18.7821  18.7821
    18.8814  18.8814  20.6163  20.6163  20.8996  20.8996  20.9106  20.9106
    21.1051  21.1051  21.6031  21.6031  21.6608  21.6608  21.7394  21.7394
    22.0069  22.0069  22.7237  22.7237  23.1251  23.1251  23.6894  23.6894
    23.8271  23.8271  24.0358  24.0358  24.2794  24.2794  24.6979  24.6979
    24.7318  24.7318  26.1742  26.1742  26.2222  26.2222  26.7795  26.7795
    27.0684  27.0684  27.0690  27.0690  27.5712  27.5712  27.9272  27.9272
    28.1791  28.1791  28.1912  28.1912  28.3729  28.3729  28.7033  28.7033
    28.9402  28.9402  29.3174  29.3174  29.4659  29.4659  29.9081  29.9081
    29.9267  29.9267  30.0013  30.0013  30.5096  30.5096  30.7907  30.7907
    30.8633  30.8633  30.8731  30.8731  31.0093  31.0093  31.0233  31.0233
    31.1142  31.1142  31.7141  31.7141  31.9678  31.9678  32.3452  32.3452
    32.8736  32.8736  32.9770  32.9770  33.0388  33.0388  33.5416  33.5416
    33.9756  33.9756  34.1114  34.1114  34.1293  34.1293  34.3091  34.3091
    34.8232  34.8232  34.9844  34.9844  35.0297  35.0297  35.4688  35.4688
    36.1045  36.1045  36.5420  36.5420  36.5807  36.5807  36.7574  36.7574
    37.0178  37.0178  37.0696  37.0696  37.3125  37.3125  37.5621  37.5621
    37.5699  37.5699  38.0946  38.0946  38.1165  38.1165  38.1751  38.1751
    38.4356  38.4356  38.5883  38.5883  38.6184  38.6184  39.5479  39.5479
    40.0516  40.0516  40.2133  40.2133  40.2310  40.2310  40.7811  40.7811
    40.9960  40.9960  41.0090  41.0090  41.3076  41.3076  41.5852  41.5852
    41.9423  41.9423  42.4381  42.4381  42.4612  42.4612  42.5726  42.5726
    42.6590  42.6590  44.3429  44.3429  44.4762  44.4762  44.4960  44.4960
    44.8824  44.8824  44.9601  44.9601  45.0470  45.0470  45.0548  45.0548
    45.4641  45.4641  45.5137  45.5137  45.7981  45.7981  45.9196  45.9196
    46.1472  46.1472  46.2984  46.2984

          k = 0.5000 0.5000 0.5000 (  1736 PWs)   bands (ev):

   -17.0923 -17.0923 -10.0476 -10.0476 -10.0223 -10.0223 -10.0223 -10.0223
    -8.5968  -8.5968  -8.5968  -8.5968  -6.9084  -6.9084  -6.9084  -6.9084
    -6.8926  -6.8926  -4.9255  -4.9255  -4.7341  -4.7341  -3.4085  -3.4085
    -3.4085  -3.4085   1.1130   1.1130   1.1213   1.1213   1.1213   1.1213
     1.9029   1.9029   1.9029   1.9029   2.0026   2.0026   2.0729   2.0729
     2.0729   2.0729   4.3280   4.3280   5.0739   5.0739   6.7364   6.7364
     6.7364   6.7364   9.3743   9.3743   9.6718   9.6718   9.9408   9.9408
     9.9408   9.9408  11.0350  11.0350  11.0350  11.0350  12.2007  12.2007
    12.4353  12.4353  12.4353  12.4353  13.4238  13.4238  13.4238  13.4238
    13.4245  13.4245  15.2325  15.2325  15.8650  15.8650  16.0451  16.0451
    16.0451  16.0451  16.1430  16.1430  16.1430  16.1430  16.1491  16.1491
    17.9857  17.9857  17.9857  17.9857  18.2764  18.2764  18.2771  18.2771
    18.2771  18.2771  19.0547  19.0547  19.0645  19.0645  19.0645  19.0645
    19.1463  19.1463  19.2510  19.2510  19.2510  19.2510  19.4507  19.4507
    20.5045  20.5045  20.5770  20.5770  20.5770  20.5770  20.8884  20.8884
    20.8884  20.8884  23.2307  23.2307  23.7974  23.7974  24.4252  24.4252
    24.4252  24.4252  25.2298  25.2298  25.9984  25.9984  26.0854  26.0854
    26.0854  26.0854  26.7838  26.7838  26.7838  26.7838  26.7925  26.7925
    27.6424  27.6424  27.6424  27.6424  27.6429  27.6429  28.1360  28.1360
    28.1360  28.1360  28.4637  28.4637  28.5933  28.5933  28.5933  28.5933
    28.8956  28.8956  28.9297  28.9297  28.9297  28.9297  29.7074  29.7074
    29.7074  29.7074  30.7858  30.7858  30.7858  30.7858  30.7881  30.7881
    31.0517  31.0517  31.0536  31.0536  31.0536  31.0536  32.2368  32.2368
    32.4143  32.4143  32.6058  32.6058  32.8574  32.8574  32.8574  32.8574
    33.1803  33.1803  33.1803  33.1803  33.2780  33.2780  33.2780  33.2780
    33.5683  33.5683  34.2208  34.2208  34.2498  34.2498  34.2498  34.2498
    35.0259  35.0259  35.0340  35.0340  35.0340  35.0340  35.1438  35.1438
    35.1438  35.1438  35.1725  35.1725  35.1725  35.1725  35.1735  35.1735
    35.2231  35.2231  35.3287  35.3287  35.3287  35.3287  35.8312  35.8312
    37.9212  37.9212  38.9688  38.9688  38.9688  38.9688  38.9690  38.9690
    39.4377  39.4377  39.4458  39.4458  39.4458  39.4458  39.4840  39.4840
    39.6337  39.6337  39.6337  39.6337  39.8515  39.8515  40.3858  40.3858
    40.3863  40.3863  40.3863  40.3863  41.5159  41.5159  41.5159  41.5159
    42.0337  42.0337  42.0337  42.0337  42.3888  42.3888  42.4126  42.4126
    42.4126  42.4126  43.0049  43.0049  43.0052  43.0052  43.0052  43.0052
    43.8317  43.8317  44.0806  44.0806  44.0954  44.0954  44.0954  44.0954
    44.3120  44.3120  44.8172  44.8172  46.7362  46.7362  46.7362  46.7362
    46.7870  46.7870  47.6196  47.6196

     Writing output data file cspbcl3.save/
 
     init_run     :      0.19s CPU      1.41s WALL (       1 calls)
     electrons    :     88.08s CPU     89.41s WALL (       1 calls)

     Called by init_run:
     wfcinit      :      0.00s CPU      0.08s WALL (       1 calls)
     wfcinit:atom :      0.00s CPU      0.01s WALL (       3 calls)
     wfcinit:wfcr :      1.22s CPU      1.39s WALL (       3 calls)
     potinit      :      0.01s CPU      0.08s WALL (       1 calls)
     hinit0       :      0.15s CPU      1.13s WALL (       1 calls)

     Called by electrons:
     c_bands      :     88.07s CPU     89.40s WALL (       1 calls)
     v_of_rho     :      0.01s CPU      0.04s WALL (       1 calls)
     v_h          :      0.00s CPU      0.00s WALL (       1 calls)
     v_xc         :      0.01s CPU      0.03s WALL (       1 calls)

     Called by c_bands:
     init_us_2    :      0.00s CPU      0.00s WALL (       3 calls)
     cegterg      :     86.03s CPU     86.92s WALL (       3 calls)

     Called by sum_band:

     Called by *egterg:
     h_psi        :      7.79s CPU      8.68s WALL (      55 calls)
     g_psi        :      0.05s CPU      0.06s WALL (      49 calls)
     cdiaghg      :     76.56s CPU     76.59s WALL (      52 calls)
     cegterg:over :      1.37s CPU      1.41s WALL (      49 calls)
     cegterg:upda :      0.78s CPU      0.78s WALL (      49 calls)
     cegterg:last :      0.39s CPU      0.39s WALL (       9 calls)

     Called by h_psi:
     h_psi:pot    :      7.78s CPU      8.66s WALL (      55 calls)
     h_psi:calbec :      0.24s CPU      0.26s WALL (      55 calls)
     vloc_psi     :      5.49s CPU      6.34s WALL (      55 calls)
     add_vuspsi   :      2.04s CPU      2.05s WALL (      55 calls)

     General routines
     calbec       :      0.24s CPU      0.26s WALL (      55 calls)
     fft          :      0.05s CPU      0.97s WALL (      14 calls)
     fftw         :      4.86s CPU      5.63s WALL (   36304 calls)
     davcio       :      0.00s CPU      0.03s WALL (       6 calls)
 
     Parallel routines
     fft_scatt_xy :      0.53s CPU      0.60s WALL (   36318 calls)
     fft_scatt_yz :      2.42s CPU      2.82s WALL (   36318 calls)
 
     PWSCF        :   1m32.45s CPU   1m36.42s WALL

 
   This run was terminated on:  15:22:45   1May2021            

=------------------------------------------------------------------------------=
   JOB DONE.
=------------------------------------------------------------------------------=
TACC:  Shutdown complete. Exiting. 
