
     Program PWSCF v.5.0.2 (svn rev. 9656) starts on 26Jun2013 at 22:54:48 

     This program is part of the open-source Quantum ESPRESSO suite
     for quantum simulation of materials; please cite
         "P. Giannozzi et al., J. Phys.:Condens. Matter 21 395502 (2009);
          URL http://www.quantum-espresso.org", 
     in publications or presentations arising from this work. More details at
     http://www.quantum-espresso.org/quote.php

     Parallel version (MPI), running on    64 processors
     R & G space division:  proc/nbgrp/npool/nimage =      64

     Current dimensions of program PWSCF are:
     Max number of different atomic species (ntypx) = 10
     Max number of k-points (npk) =  40000
     Max angular momentum in pseudopotentials (lmaxx) =  3
     Waiting for input...
     Reading input from standard input

     Atomic positions and unit cell read from directory:
     ./Zn2O2.save/
 

     Subspace diagonalization in iterative solution of the eigenvalue problem:
     scalapack distributed-memory algorithm (size of sub-group:  5*  5 procs)


   Info: using nr1, nr2, nr3 values from input
 
     Parallelization info
     --------------------
     sticks:   dense  smooth     PW     G-vecs:    dense   smooth      PW
     Min          64      64     17                 5414     5414     753
     Max          65      65     18                 5423     5423     762
     Sum        4153    4153   1123               346889   346889   48467
 


     bravais-lattice index     =            0
     lattice parameter (alat)  =       1.8897  a.u.
     unit-cell volume          =     320.9943 (a.u.)^3
     number of atoms/cell      =            4
     number of atomic types    =            2
     number of electrons       =        52.00
     number of Kohn-Sham states=           26
     kinetic-energy cutoff     =     400.0000  Ry
     charge density cutoff     =    1600.0000  Ry
     Exchange-correlation      = SLA+PW ( 1 4 0 0 0)
     EXX-fraction              =        0.00

     celldm(1)=   1.889726  celldm(2)=   0.000000  celldm(3)=   0.000000
     celldm(4)=   0.000000  celldm(5)=   0.000000  celldm(6)=   0.000000

     crystal axes: (cart. coord. in units of alat)
               a(1) = (   3.250000   0.000000   0.000000 )  
               a(2) = (  -1.625000   2.814583   0.000000 )  
               a(3) = (   0.000000   0.000000   5.200000 )  

     reciprocal axes: (cart. coord. in units 2 pi/alat)
               b(1) = (  0.307692  0.177646  0.000000 )  
               b(2) = (  0.000000  0.355292  0.000000 )  
               b(3) = (  0.000000  0.000000  0.192308 )  


     PseudoPot. # 1 for Zn read from file:
     ../../0_pp/Zn.pw-spn-nc.UPF
     MD5 check sum: 9a837cc8ef69fdaee1504d3748345681
     Pseudo is Norm-conserving + core correction, Zval = 20.0
     Generated using "atomic" code by A. Dal Corso  v.5.0.2 svn rev. 9656
     Using radial grid of 1201 points,  2 beta functions with: 
                l(1) =   0
                l(2) =   1

     PseudoPot. # 2 for  O read from file:
     ../../0_pp/O.pw-n-nc.UPF
     MD5 check sum: 22ead4914353326b5879bd0c3df232e0
     Pseudo is Norm-conserving + core correction, Zval =  6.0
     Generated using "atomic" code by A. Dal Corso  v.5.0.2 svn rev. 9656
     Using radial grid of 1095 points,  1 beta functions with: 
                l(1) =   0

     atomic species   valence    mass     pseudopotential
        Zn            20.00    65.38000     Zn( 1.00)
        O              6.00    15.99900      O( 1.00)

     12 Sym. Ops. (no inversion) found ( 6 have fractional translation)


                                    s                        frac. trans.

      isym =  1     identity                                     

 cryst.   s( 1) = (     1          0          0      )
                  (     0          1          0      )
                  (     0          0          1      )

 cart.    s( 1) = (  1.0000000  0.0000000  0.0000000 )
                  (  0.0000000  1.0000000  0.0000000 )
                  (  0.0000000  0.0000000  1.0000000 )


      isym =  2     180 deg rotation - cart. axis [0,0,1]        

 cryst.   s( 2) = (    -1          0          0      )    f =(  0.0000000 )
                  (     0         -1          0      )       (  0.0000000 )
                  (     0          0          1      )       ( -0.5000000 )

 cart.    s( 2) = ( -1.0000000  0.0000000  0.0000000 )    f =(  0.0000000 )
                  (  0.0000000 -1.0000000  0.0000000 )       (  0.0000000 )
                  (  0.0000000  0.0000000  1.0000000 )       ( -2.6000000 )


      isym =  3      60 deg rotation - cryst. axis [0,0,1]       

 cryst.   s( 3) = (     1          1          0      )    f =(  0.0000000 )
                  (    -1          0          0      )       (  0.0000000 )
                  (     0          0          1      )       ( -0.5000000 )

 cart.    s( 3) = (  0.5000000 -0.8660254  0.0000000 )    f =(  0.0000000 )
                  (  0.8660254  0.5000000  0.0000000 )       (  0.0000000 )
                  (  0.0000000  0.0000000  1.0000000 )       ( -2.6000000 )


      isym =  4      60 deg rotation - cryst. axis [0,0,-1]      

 cryst.   s( 4) = (     0         -1          0      )    f =(  0.0000000 )
                  (     1          1          0      )       (  0.0000000 )
                  (     0          0          1      )       ( -0.5000000 )

 cart.    s( 4) = (  0.5000000  0.8660254  0.0000000 )    f =(  0.0000000 )
                  ( -0.8660254  0.5000000  0.0000000 )       (  0.0000000 )
                  (  0.0000000  0.0000000  1.0000000 )       ( -2.6000000 )


      isym =  5     120 deg rotation - cryst. axis [0,0,1]       

 cryst.   s( 5) = (     0          1          0      )
                  (    -1         -1          0      )
                  (     0          0          1      )

 cart.    s( 5) = ( -0.5000000 -0.8660254  0.0000000 )
                  (  0.8660254 -0.5000000  0.0000000 )
                  (  0.0000000  0.0000000  1.0000000 )


      isym =  6     120 deg rotation - cryst. axis [0,0,-1]      

 cryst.   s( 6) = (    -1         -1          0      )
                  (     1          0          0      )
                  (     0          0          1      )

 cart.    s( 6) = ( -0.5000000  0.8660254  0.0000000 )
                  ( -0.8660254 -0.5000000  0.0000000 )
                  (  0.0000000  0.0000000  1.0000000 )


      isym =  7     inv. 180 deg rotation - cart. axis [0,1,0]   

 cryst.   s( 7) = (     1          0          0      )    f =(  0.0000000 )
                  (    -1         -1          0      )       (  0.0000000 )
                  (     0          0          1      )       ( -0.5000000 )

 cart.    s( 7) = (  1.0000000  0.0000000  0.0000000 )    f =(  0.0000000 )
                  (  0.0000000 -1.0000000  0.0000000 )       (  0.0000000 )
                  (  0.0000000  0.0000000  1.0000000 )       ( -2.6000000 )


      isym =  8     inv. 180 deg rotation - cart. axis [1,0,0]   

 cryst.   s( 8) = (    -1          0          0      )
                  (     1          1          0      )
                  (     0          0          1      )

 cart.    s( 8) = ( -1.0000000  0.0000000  0.0000000 )
                  (  0.0000000  1.0000000  0.0000000 )
                  (  0.0000000  0.0000000  1.0000000 )


      isym =  9     inv. 180 deg rotation - cryst. axis [1,-1,0] 

 cryst.   s( 9) = (     0          1          0      )    f =(  0.0000000 )
                  (     1          0          0      )       (  0.0000000 )
                  (     0          0          1      )       ( -0.5000000 )

 cart.    s( 9) = ( -0.5000000  0.8660254  0.0000000 )    f =(  0.0000000 )
                  (  0.8660254  0.5000000  0.0000000 )       (  0.0000000 )
                  (  0.0000000  0.0000000  1.0000000 )       ( -2.6000000 )


      isym = 10     inv. 180 deg rotation - cryst. axis [2,1,0]  

 cryst.   s(10) = (    -1         -1          0      )    f =(  0.0000000 )
                  (     0          1          0      )       (  0.0000000 )
                  (     0          0          1      )       ( -0.5000000 )

 cart.    s(10) = ( -0.5000000 -0.8660254  0.0000000 )    f =(  0.0000000 )
                  ( -0.8660254  0.5000000  0.0000000 )       (  0.0000000 )
                  (  0.0000000  0.0000000  1.0000000 )       ( -2.6000000 )


      isym = 11     inv. 180 deg rotation - cryst. axis [0,1,0]  

 cryst.   s(11) = (     1          1          0      )
                  (     0         -1          0      )
                  (     0          0          1      )

 cart.    s(11) = (  0.5000000  0.8660254  0.0000000 )
                  (  0.8660254 -0.5000000  0.0000000 )
                  (  0.0000000  0.0000000  1.0000000 )


      isym = 12     inv. 180 deg rotation - cryst. axis [1,1,0]  

 cryst.   s(12) = (     0         -1          0      )
                  (    -1          0          0      )
                  (     0          0          1      )

 cart.    s(12) = (  0.5000000 -0.8660254  0.0000000 )
                  ( -0.8660254 -0.5000000  0.0000000 )
                  (  0.0000000  0.0000000  1.0000000 )


     point group C_6v (6mm) 
     there are  6 classes
     the character table:

       E     2C6   2C3   C2    3s_v  3s_d 
A_1    1.00  1.00  1.00  1.00  1.00  1.00
A_2    1.00  1.00  1.00  1.00 -1.00 -1.00
B_1    1.00 -1.00  1.00 -1.00  1.00 -1.00
B_2    1.00 -1.00  1.00 -1.00 -1.00  1.00
E_1    2.00  1.00 -1.00 -2.00  0.00  0.00
E_2    2.00 -1.00 -1.00  2.00  0.00  0.00

     the symmetry operations in each class:
     E        1
     C2       2
     2C6      3    4
     2C3      5    6
     3s_v     7    9   10
     3s_d     8   12   11

   Cartesian axes

     site n.     atom                  positions (alat units)
         1           Zn  tau(   1) = (   1.6250000   0.9381942   0.0000000  )
         2           Zn  tau(   2) = (   0.0000000   1.8763884   2.6000000  )
         3           O   tau(   3) = (   1.6250000   0.9381942   3.2136000  )
         4           O   tau(   4) = (   0.0000000   1.8763884   0.6136000  )

   Crystallographic axes

     site n.     atom                  positions (cryst. coord.)
         1           Zn  tau(   1) = (  0.6666667  0.3333333  0.0000000  )
         2           Zn  tau(   2) = (  0.3333333  0.6666667  0.5000000  )
         3           O   tau(   3) = (  0.6666667  0.3333333  0.6180000  )
         4           O   tau(   4) = (  0.3333333  0.6666667  0.1180000  )

     number of k points=    75
                       cart. coord. in units 2pi/alat
        k(    1) = (   0.1538462   0.0888231   0.0641025), wk =   0.0266667
        k(    2) = (   0.1538462   0.0888231   0.0605413), wk =   0.0266667
        k(    3) = (   0.1538462   0.0888231   0.0569800), wk =   0.0266667
        k(    4) = (   0.1538462   0.0888231   0.0534188), wk =   0.0266667
        k(    5) = (   0.1538462   0.0888231   0.0498575), wk =   0.0266667
        k(    6) = (   0.1538462   0.0888231   0.0462963), wk =   0.0266667
        k(    7) = (   0.1538462   0.0888231   0.0427350), wk =   0.0266667
        k(    8) = (   0.1538462   0.0888231   0.0391738), wk =   0.0266667
        k(    9) = (   0.1538462   0.0888231   0.0356125), wk =   0.0266667
        k(   10) = (   0.1538462   0.0888231   0.0320513), wk =   0.0266667
        k(   11) = (   0.1538462   0.0888231   0.0284900), wk =   0.0266667
        k(   12) = (   0.1538462   0.0888231   0.0249288), wk =   0.0266667
        k(   13) = (   0.1538462   0.0888231   0.0213675), wk =   0.0266667
        k(   14) = (   0.1538462   0.0888231   0.0178063), wk =   0.0266667
        k(   15) = (   0.1538462   0.0888231   0.0142450), wk =   0.0266667
        k(   16) = (   0.1538462   0.0888231   0.0106838), wk =   0.0266667
        k(   17) = (   0.1538462   0.0888231   0.0071225), wk =   0.0266667
        k(   18) = (   0.1538462   0.0888231   0.0035613), wk =   0.0266667
        k(   19) = (   0.1538462   0.0888231   0.0000000), wk =   0.0266667
        k(   20) = (   0.1520778   0.0918859   0.0000000), wk =   0.0266667
        k(   21) = (   0.1503095   0.0949491   0.0000000), wk =   0.0266667
        k(   22) = (   0.1485412   0.0980119   0.0000000), wk =   0.0266667
        k(   23) = (   0.1467726   0.1010745   0.0000000), wk =   0.0266667
        k(   24) = (   0.1450043   0.1041373   0.0000000), wk =   0.0266667
        k(   25) = (   0.1432360   0.1072004   0.0000000), wk =   0.0266667
        k(   26) = (   0.1414677   0.1102632   0.0000000), wk =   0.0266667
        k(   27) = (   0.1396994   0.1133260   0.0000000), wk =   0.0266667
        k(   28) = (   0.1379311   0.1163888   0.0000000), wk =   0.0266667
        k(   29) = (   0.1361628   0.1194520   0.0000000), wk =   0.0266667
        k(   30) = (   0.1343945   0.1225148   0.0000000), wk =   0.0266667
        k(   31) = (   0.1326258   0.1255774   0.0000000), wk =   0.0266667
        k(   32) = (   0.1308575   0.1286402   0.0000000), wk =   0.0266667
        k(   33) = (   0.1290892   0.1317034   0.0000000), wk =   0.0266667
        k(   34) = (   0.1273209   0.1347662   0.0000000), wk =   0.0266667
        k(   35) = (   0.1255526   0.1378290   0.0000000), wk =   0.0266667
        k(   36) = (   0.1237843   0.1408918   0.0000000), wk =   0.0266667
        k(   37) = (   0.1220160   0.1439549   0.0000000), wk =   0.0266667
        k(   38) = (   0.1202477   0.1470177   0.0000000), wk =   0.0266667
        k(   39) = (   0.1184791   0.1500803   0.0000000), wk =   0.0266667
        k(   40) = (   0.1167108   0.1531431   0.0000000), wk =   0.0266667
        k(   41) = (   0.1149425   0.1562063   0.0000000), wk =   0.0266667
        k(   42) = (   0.1131742   0.1592691   0.0000000), wk =   0.0266667
        k(   43) = (   0.1114058   0.1623319   0.0000000), wk =   0.0266667
        k(   44) = (   0.1096375   0.1653947   0.0000000), wk =   0.0266667
        k(   45) = (   0.1078692   0.1684578   0.0000000), wk =   0.0266667
        k(   46) = (   0.1061009   0.1715206   0.0000000), wk =   0.0266667
        k(   47) = (   0.1043323   0.1745833   0.0000000), wk =   0.0266667
        k(   48) = (   0.1025640   0.1776461   0.0000000), wk =   0.0266667
        k(   49) = (   0.1025640   0.1776461   0.0035613), wk =   0.0266667
        k(   50) = (   0.1025640   0.1776461   0.0071225), wk =   0.0266667
        k(   51) = (   0.1025640   0.1776461   0.0106838), wk =   0.0266667
        k(   52) = (   0.1025640   0.1776461   0.0142450), wk =   0.0266667
        k(   53) = (   0.1025640   0.1776461   0.0178063), wk =   0.0266667
        k(   54) = (   0.1025640   0.1776461   0.0213675), wk =   0.0266667
        k(   55) = (   0.1025640   0.1776461   0.0249288), wk =   0.0266667
        k(   56) = (   0.1025640   0.1776461   0.0284900), wk =   0.0266667
        k(   57) = (   0.1025640   0.1776461   0.0320513), wk =   0.0266667
        k(   58) = (   0.1025640   0.1776461   0.0356125), wk =   0.0266667
        k(   59) = (   0.1025640   0.1776461   0.0391738), wk =   0.0266667
        k(   60) = (   0.1025640   0.1776461   0.0427350), wk =   0.0266667
        k(   61) = (   0.1025640   0.1776461   0.0462963), wk =   0.0266667
        k(   62) = (   0.1025640   0.1776461   0.0498575), wk =   0.0266667
        k(   63) = (   0.1025640   0.1776461   0.0534188), wk =   0.0266667
        k(   64) = (   0.1025640   0.1776461   0.0569800), wk =   0.0266667
        k(   65) = (   0.1025640   0.1776461   0.0605413), wk =   0.0266667
        k(   66) = (   0.1025640   0.1776461   0.0641025), wk =   0.0266667
        k(   67) = (   0.1025640   0.1776461   0.0676638), wk =   0.0266667
        k(   68) = (   0.1025640   0.1776461   0.0712250), wk =   0.0266667
        k(   69) = (   0.1025640   0.1776461   0.0747863), wk =   0.0266667
        k(   70) = (   0.1025640   0.1776461   0.0783475), wk =   0.0266667
        k(   71) = (   0.1025640   0.1776461   0.0819088), wk =   0.0266667
        k(   72) = (   0.1025640   0.1776461   0.0854700), wk =   0.0266667
        k(   73) = (   0.1025640   0.1776461   0.0890313), wk =   0.0266667
        k(   74) = (   0.1025640   0.1776461   0.0925925), wk =   0.0266667
        k(   75) = (   0.1025640   0.1776461   0.0961538), wk =   0.0266667

                       cryst. coord.
        k(    1) = (   0.5000000   0.0000000   0.3333330), wk =   0.0266667
        k(    2) = (   0.5000000   0.0000000   0.3148150), wk =   0.0266667
        k(    3) = (   0.5000000   0.0000000   0.2962960), wk =   0.0266667
        k(    4) = (   0.5000000   0.0000000   0.2777780), wk =   0.0266667
        k(    5) = (   0.5000000   0.0000000   0.2592590), wk =   0.0266667
        k(    6) = (   0.5000000   0.0000000   0.2407410), wk =   0.0266667
        k(    7) = (   0.5000000   0.0000000   0.2222220), wk =   0.0266667
        k(    8) = (   0.5000000   0.0000000   0.2037040), wk =   0.0266667
        k(    9) = (   0.5000000   0.0000000   0.1851850), wk =   0.0266667
        k(   10) = (   0.5000000   0.0000000   0.1666670), wk =   0.0266667
        k(   11) = (   0.5000000   0.0000000   0.1481480), wk =   0.0266667
        k(   12) = (   0.5000000   0.0000000   0.1296300), wk =   0.0266667
        k(   13) = (   0.5000000   0.0000000   0.1111110), wk =   0.0266667
        k(   14) = (   0.5000000   0.0000000   0.0925930), wk =   0.0266667
        k(   15) = (   0.5000000   0.0000000   0.0740740), wk =   0.0266667
        k(   16) = (   0.5000000   0.0000000   0.0555560), wk =   0.0266667
        k(   17) = (   0.5000000   0.0000000   0.0370370), wk =   0.0266667
        k(   18) = (   0.5000000   0.0000000   0.0185190), wk =   0.0266667
        k(   19) = (   0.5000000   0.0000000   0.0000000), wk =   0.0266667
        k(   20) = (   0.4942530   0.0114940   0.0000000), wk =   0.0266667
        k(   21) = (   0.4885060   0.0229890   0.0000000), wk =   0.0266667
        k(   22) = (   0.4827590   0.0344830   0.0000000), wk =   0.0266667
        k(   23) = (   0.4770110   0.0459770   0.0000000), wk =   0.0266667
        k(   24) = (   0.4712640   0.0574710   0.0000000), wk =   0.0266667
        k(   25) = (   0.4655170   0.0689660   0.0000000), wk =   0.0266667
        k(   26) = (   0.4597700   0.0804600   0.0000000), wk =   0.0266667
        k(   27) = (   0.4540230   0.0919540   0.0000000), wk =   0.0266667
        k(   28) = (   0.4482760   0.1034480   0.0000000), wk =   0.0266667
        k(   29) = (   0.4425290   0.1149430   0.0000000), wk =   0.0266667
        k(   30) = (   0.4367820   0.1264370   0.0000000), wk =   0.0266667
        k(   31) = (   0.4310340   0.1379310   0.0000000), wk =   0.0266667
        k(   32) = (   0.4252870   0.1494250   0.0000000), wk =   0.0266667
        k(   33) = (   0.4195400   0.1609200   0.0000000), wk =   0.0266667
        k(   34) = (   0.4137930   0.1724140   0.0000000), wk =   0.0266667
        k(   35) = (   0.4080460   0.1839080   0.0000000), wk =   0.0266667
        k(   36) = (   0.4022990   0.1954020   0.0000000), wk =   0.0266667
        k(   37) = (   0.3965520   0.2068970   0.0000000), wk =   0.0266667
        k(   38) = (   0.3908050   0.2183910   0.0000000), wk =   0.0266667
        k(   39) = (   0.3850570   0.2298850   0.0000000), wk =   0.0266667
        k(   40) = (   0.3793100   0.2413790   0.0000000), wk =   0.0266667
        k(   41) = (   0.3735630   0.2528740   0.0000000), wk =   0.0266667
        k(   42) = (   0.3678160   0.2643680   0.0000000), wk =   0.0266667
        k(   43) = (   0.3620690   0.2758620   0.0000000), wk =   0.0266667
        k(   44) = (   0.3563220   0.2873560   0.0000000), wk =   0.0266667
        k(   45) = (   0.3505750   0.2988510   0.0000000), wk =   0.0266667
        k(   46) = (   0.3448280   0.3103450   0.0000000), wk =   0.0266667
        k(   47) = (   0.3390800   0.3218390   0.0000000), wk =   0.0266667
        k(   48) = (   0.3333330   0.3333330   0.0000000), wk =   0.0266667
        k(   49) = (   0.3333330   0.3333330   0.0185190), wk =   0.0266667
        k(   50) = (   0.3333330   0.3333330   0.0370370), wk =   0.0266667
        k(   51) = (   0.3333330   0.3333330   0.0555560), wk =   0.0266667
        k(   52) = (   0.3333330   0.3333330   0.0740740), wk =   0.0266667
        k(   53) = (   0.3333330   0.3333330   0.0925930), wk =   0.0266667
        k(   54) = (   0.3333330   0.3333330   0.1111110), wk =   0.0266667
        k(   55) = (   0.3333330   0.3333330   0.1296300), wk =   0.0266667
        k(   56) = (   0.3333330   0.3333330   0.1481480), wk =   0.0266667
        k(   57) = (   0.3333330   0.3333330   0.1666670), wk =   0.0266667
        k(   58) = (   0.3333330   0.3333330   0.1851850), wk =   0.0266667
        k(   59) = (   0.3333330   0.3333330   0.2037040), wk =   0.0266667
        k(   60) = (   0.3333330   0.3333330   0.2222220), wk =   0.0266667
        k(   61) = (   0.3333330   0.3333330   0.2407410), wk =   0.0266667
        k(   62) = (   0.3333330   0.3333330   0.2592590), wk =   0.0266667
        k(   63) = (   0.3333330   0.3333330   0.2777780), wk =   0.0266667
        k(   64) = (   0.3333330   0.3333330   0.2962960), wk =   0.0266667
        k(   65) = (   0.3333330   0.3333330   0.3148150), wk =   0.0266667
        k(   66) = (   0.3333330   0.3333330   0.3333330), wk =   0.0266667
        k(   67) = (   0.3333330   0.3333330   0.3518520), wk =   0.0266667
        k(   68) = (   0.3333330   0.3333330   0.3703700), wk =   0.0266667
        k(   69) = (   0.3333330   0.3333330   0.3888890), wk =   0.0266667
        k(   70) = (   0.3333330   0.3333330   0.4074070), wk =   0.0266667
        k(   71) = (   0.3333330   0.3333330   0.4259260), wk =   0.0266667
        k(   72) = (   0.3333330   0.3333330   0.4444440), wk =   0.0266667
        k(   73) = (   0.3333330   0.3333330   0.4629630), wk =   0.0266667
        k(   74) = (   0.3333330   0.3333330   0.4814810), wk =   0.0266667
        k(   75) = (   0.3333330   0.3333330   0.5000000), wk =   0.0266667

     Dense  grid:   346889 G-vectors     FFT dimensions: (  80,  80, 128)

     Largest allocated arrays     est. size (Mb)     dimensions
        Kohn-Sham Wavefunctions         0.27 Mb     (    693,   26)
        NL pseudopotentials             0.11 Mb     (    693,   10)
        Each V/rho on FFT grid          0.20 Mb     (  12800)
        Each G-vector array             0.04 Mb     (   5421)
        G-vector shells                 0.02 Mb     (   2531)
     Largest temporary arrays     est. size (Mb)     dimensions
        Auxiliary wavefunctions         1.10 Mb     (    693,  104)
        Each subspace H/S matrix        0.01 Mb     (  20,  20)
        Each <psi_i|beta_j> matrix      0.00 Mb     (     10,   26)
     writing wfc files to a dedicated directory

     Check: negative/imaginary core charge=   -0.000103    0.000000

     The potential is recalculated from file :
     ./Zn2O2.save/charge-density.dat

     Starting wfc are   34 randomized atomic wfcs

     total cpu time spent up to now is        2.5 secs

     per-process dynamical memory:     8.7 Mb

     Band Structure Calculation
     Davidson diagonalization with overlap

     Computing kpt #:     1
     total cpu time spent up to now is        4.8 secs

     Computing kpt #:     2
     total cpu time spent up to now is        6.4 secs

     Computing kpt #:     3
     total cpu time spent up to now is        8.1 secs

     Computing kpt #:     4
     total cpu time spent up to now is       10.2 secs

     Computing kpt #:     5
     total cpu time spent up to now is       14.2 secs

     Computing kpt #:     6
     total cpu time spent up to now is       16.7 secs

     Computing kpt #:     7
     total cpu time spent up to now is       49.1 secs

     Computing kpt #:     8
     total cpu time spent up to now is       51.3 secs

     Computing kpt #:     9
     total cpu time spent up to now is       53.6 secs

     Computing kpt #:    10
     total cpu time spent up to now is       55.2 secs

     Computing kpt #:    11
     total cpu time spent up to now is       57.2 secs

     Computing kpt #:    12
     total cpu time spent up to now is       59.8 secs

     Computing kpt #:    13
     total cpu time spent up to now is       62.0 secs

     Computing kpt #:    14
     total cpu time spent up to now is       66.4 secs

     Computing kpt #:    15
     total cpu time spent up to now is       68.5 secs

     Computing kpt #:    16
     total cpu time spent up to now is       70.7 secs

     Computing kpt #:    17
     total cpu time spent up to now is       73.3 secs

     Computing kpt #:    18
     total cpu time spent up to now is       75.2 secs

     Computing kpt #:    19
     total cpu time spent up to now is       77.5 secs

     Computing kpt #:    20
     total cpu time spent up to now is       79.7 secs

     Computing kpt #:    21
     total cpu time spent up to now is       82.4 secs

     Computing kpt #:    22
     total cpu time spent up to now is       84.2 secs

     Computing kpt #:    23
     total cpu time spent up to now is       86.4 secs

     Computing kpt #:    24
     total cpu time spent up to now is       88.8 secs

     Computing kpt #:    25
     total cpu time spent up to now is       90.6 secs

     Computing kpt #:    26
     total cpu time spent up to now is       92.6 secs

     Computing kpt #:    27
     total cpu time spent up to now is       94.5 secs

     Computing kpt #:    28
     total cpu time spent up to now is       96.6 secs

     Computing kpt #:    29
     total cpu time spent up to now is       98.5 secs

     Computing kpt #:    30
     total cpu time spent up to now is      100.6 secs

     Computing kpt #:    31
     total cpu time spent up to now is      102.5 secs

     Computing kpt #:    32
     total cpu time spent up to now is      104.4 secs

     Computing kpt #:    33
     total cpu time spent up to now is      106.1 secs

     Computing kpt #:    34
     total cpu time spent up to now is      107.8 secs

     Computing kpt #:    35
     total cpu time spent up to now is      109.5 secs

     Computing kpt #:    36
     total cpu time spent up to now is      111.4 secs

     Computing kpt #:    37
     total cpu time spent up to now is      113.1 secs

     Computing kpt #:    38
     total cpu time spent up to now is      115.6 secs

     Computing kpt #:    39
     total cpu time spent up to now is      117.8 secs

     Computing kpt #:    40
     total cpu time spent up to now is      120.2 secs

     Computing kpt #:    41
     total cpu time spent up to now is      122.1 secs

     Computing kpt #:    42
     total cpu time spent up to now is      124.7 secs

     Computing kpt #:    43
     total cpu time spent up to now is      126.8 secs

     Computing kpt #:    44
     total cpu time spent up to now is      128.9 secs

     Computing kpt #:    45
     total cpu time spent up to now is      130.8 secs

     Computing kpt #:    46
     total cpu time spent up to now is      133.0 secs

     Computing kpt #:    47
     total cpu time spent up to now is      134.6 secs

     Computing kpt #:    48
     total cpu time spent up to now is      136.7 secs

     Computing kpt #:    49
     total cpu time spent up to now is      138.6 secs

     Computing kpt #:    50
     total cpu time spent up to now is      140.9 secs

     Computing kpt #:    51
     total cpu time spent up to now is      143.4 secs

     Computing kpt #:    52
     total cpu time spent up to now is      145.3 secs

     Computing kpt #:    53
     total cpu time spent up to now is      147.4 secs

     Computing kpt #:    54
     total cpu time spent up to now is      149.0 secs

     Computing kpt #:    55
     total cpu time spent up to now is      150.7 secs

     Computing kpt #:    56
     total cpu time spent up to now is      153.5 secs

     Computing kpt #:    57
     total cpu time spent up to now is      155.6 secs

     Computing kpt #:    58
     total cpu time spent up to now is      157.7 secs

     Computing kpt #:    59
     total cpu time spent up to now is      160.1 secs

     Computing kpt #:    60
     total cpu time spent up to now is      161.8 secs

     Computing kpt #:    61
     total cpu time spent up to now is      164.3 secs

     Computing kpt #:    62
     total cpu time spent up to now is      166.3 secs

     Computing kpt #:    63
     total cpu time spent up to now is      169.6 secs

     Computing kpt #:    64
     total cpu time spent up to now is      171.6 secs

     Computing kpt #:    65
     total cpu time spent up to now is      173.6 secs

     Computing kpt #:    66
     total cpu time spent up to now is      175.5 secs

     Computing kpt #:    67
     total cpu time spent up to now is      178.0 secs

     Computing kpt #:    68
     total cpu time spent up to now is      179.8 secs

     Computing kpt #:    69
     total cpu time spent up to now is      181.5 secs

     Computing kpt #:    70
     total cpu time spent up to now is      183.1 secs

     Computing kpt #:    71
     total cpu time spent up to now is      184.8 secs

     Computing kpt #:    72
     total cpu time spent up to now is      186.7 secs

     Computing kpt #:    73
     total cpu time spent up to now is      188.7 secs

     Computing kpt #:    74
     total cpu time spent up to now is      190.8 secs

     Computing kpt #:    75
     total cpu time spent up to now is      194.0 secs

     ethr =  1.92E-13,  avg # of iterations = 15.9

     total cpu time spent up to now is      194.0 secs

     End of band structure calculation

          k = 0.1538 0.0888 0.0641     band energies (ev):

  -114.1637-114.1637 -68.8282 -68.8276 -68.8190 -68.8188 -68.8176 -68.8172
    -8.4986  -8.3785   2.3429   2.3991   3.0761   3.2689   3.3076   3.3335
     4.0510   4.0884   4.0898   4.2023   4.6258   4.7273   6.5756   6.5980
     7.3008   7.3876

          k = 0.1538 0.0888 0.0605     band energies (ev):

  -114.1637-114.1637 -68.8282 -68.8276 -68.8190 -68.8188 -68.8176 -68.8172
    -8.5050  -8.3731   2.3529   2.4174   3.0651   3.2715   3.3137   3.3483
     4.0497   4.0773   4.0929   4.2044   4.6267   4.7372   6.5026   6.5606
     7.3339   7.3907

          k = 0.1538 0.0888 0.0570     band energies (ev):

  -114.1637-114.1637 -68.8282 -68.8276 -68.8190 -68.8188 -68.8176 -68.8171
    -8.5113  -8.3680   2.3635   2.4368   3.0547   3.2746   3.3200   3.3627
     4.0485   4.0659   4.0960   4.2061   4.6284   4.7473   6.4293   6.5244
     7.3656   7.3897

          k = 0.1538 0.0888 0.0534     band energies (ev):

  -114.1637-114.1637 -68.8283 -68.8275 -68.8191 -68.8188 -68.8177 -68.8171
    -8.5174  -8.3631   2.3745   2.4571   3.0448   3.2783   3.3265   3.3767
     4.0474   4.0541   4.0992   4.2075   4.6310   4.7575   6.3560   6.4893
     7.3850   7.3960

          k = 0.1538 0.0888 0.0499     band energies (ev):

  -114.1637-114.1637 -68.8283 -68.8275 -68.8191 -68.8188 -68.8177 -68.8171
    -8.5232  -8.3585   2.3858   2.4781   3.0355   3.2825   3.3332   3.3903
     4.0421   4.0463   4.1024   4.2087   4.6344   4.7677   6.2834   6.4556
     7.3769   7.4248

          k = 0.1538 0.0888 0.0463     band energies (ev):

  -114.1637-114.1637 -68.8283 -68.8275 -68.8191 -68.8188 -68.8177 -68.8171
    -8.5287  -8.3542   2.3972   2.4995   3.0268   3.2873   3.3400   3.4033
     4.0297   4.0453   4.1057   4.2096   4.6387   4.7779   6.2118   6.4234
     7.3661   7.4520

          k = 0.1538 0.0888 0.0427     band energies (ev):

  -114.1637-114.1637 -68.8283 -68.8275 -68.8191 -68.8188 -68.8177 -68.8171
    -8.5339  -8.3502   2.4086   2.5211   3.0187   3.2926   3.3467   3.4156
     4.0173   4.0444   4.1089   4.2103   4.6439   4.7880   6.1418   6.3928
     7.3529   7.4776

          k = 0.1538 0.0888 0.0392     band energies (ev):

  -114.1637-114.1637 -68.8283 -68.8274 -68.8191 -68.8188 -68.8177 -68.8171
    -8.5388  -8.3465   2.4197   2.5425   3.0112   3.2983   3.3534   3.4272
     4.0047   4.0436   4.1121   4.2108   4.6498   4.7979   6.0739   6.3641
     7.3379   7.5013

          k = 0.1538 0.0888 0.0356     band energies (ev):

  -114.1637-114.1637 -68.8283 -68.8274 -68.8191 -68.8188 -68.8177 -68.8170
    -8.5433  -8.3431   2.4304   2.5635   3.0043   3.3044   3.3599   3.4381
     3.9923   4.0428   4.1152   4.2112   4.6564   4.8074   6.0087   6.3372
     7.3218   7.5233

          k = 0.1538 0.0888 0.0321     band energies (ev):

  -114.1637-114.1637 -68.8283 -68.8274 -68.8191 -68.8188 -68.8177 -68.8170
    -8.5475  -8.3400   2.4405   2.5837   2.9981   3.3109   3.3662   3.4481
     3.9800   4.0422   4.1182   4.2114   4.6637   4.8166   5.9467   6.3124
     7.3050   7.5434

          k = 0.1538 0.0888 0.0285     band energies (ev):

  -114.1637-114.1637 -68.8284 -68.8274 -68.8191 -68.8188 -68.8178 -68.8170
    -8.5513  -8.3373   2.4500   2.6028   2.9925   3.3176   3.3721   3.4573
     3.9680   4.0416   4.1210   4.2115   4.6714   4.8253   5.8885   6.2899
     7.2882   7.5615

          k = 0.1538 0.0888 0.0249     band energies (ev):

  -114.1637-114.1637 -68.8284 -68.8274 -68.8192 -68.8188 -68.8178 -68.8170
    -8.5547  -8.3348   2.4587   2.6206   2.9875   3.3243   3.3776   3.4655
     3.9567   4.0410   4.1236   4.2115   4.6793   4.8333   5.8348   6.2696
     7.2718   7.5776

          k = 0.1538 0.0888 0.0214     band energies (ev):

  -114.1637-114.1637 -68.8284 -68.8273 -68.8192 -68.8188 -68.8178 -68.8170
    -8.5576  -8.3327   2.4665   2.6366   2.9832   3.3308   3.3826   3.4727
     3.9461   4.0406   4.1260   4.2115   4.6873   4.8405   5.7862   6.2518
     7.2565   7.5917

          k = 0.1538 0.0888 0.0178     band energies (ev):

  -114.1637-114.1637 -68.8284 -68.8273 -68.8192 -68.8188 -68.8178 -68.8170
    -8.5602  -8.3309   2.4732   2.6506   2.9796   3.3370   3.3870   3.4788
     3.9364   4.0402   4.1281   4.2114   4.6949   4.8469   5.7435   6.2365
     7.2426   7.6036

          k = 0.1538 0.0888 0.0142     band energies (ev):

  -114.1637-114.1637 -68.8284 -68.8273 -68.8192 -68.8188 -68.8178 -68.8170
    -8.5623  -8.3294   2.4789   2.6625   2.9766   3.3426   3.3907   3.4839
     3.9281   4.0398   4.1298   4.2114   4.7019   4.8523   5.7073   6.2239
     7.2306   7.6135

          k = 0.1538 0.0888 0.0107     band energies (ev):

  -114.1637-114.1637 -68.8284 -68.8273 -68.8192 -68.8188 -68.8178 -68.8170
    -8.5639  -8.3283   2.4833   2.6719   2.9743   3.3473   3.3937   3.4879
     3.9213   4.0396   4.1313   4.2113   4.7079   4.8566   5.6783   6.2140
     7.2208   7.6212

          k = 0.1538 0.0888 0.0071     band energies (ev):

  -114.1637-114.1637 -68.8284 -68.8273 -68.8192 -68.8188 -68.8178 -68.8170
    -8.5651  -8.3274   2.4865   2.6788   2.9726   3.3509   3.3958   3.4908
     3.9162   4.0394   4.1323   4.2112   4.7125   4.8598   5.6570   6.2068
     7.2137   7.6267

          k = 0.1538 0.0888 0.0036     band energies (ev):

  -114.1637-114.1637 -68.8284 -68.8273 -68.8192 -68.8188 -68.8178 -68.8170
    -8.5658  -8.3269   2.4885   2.6829   2.9716   3.3531   3.3972   3.4925
     3.9131   4.0393   4.1329   4.2112   4.7154   4.8617   5.6441   6.2025
     7.2093   7.6300

          k = 0.1538 0.0888 0.0000     band energies (ev):

  -114.1637-114.1637 -68.8284 -68.8273 -68.8192 -68.8188 -68.8178 -68.8170
    -8.5660  -8.3268   2.4891   2.6843   2.9713   3.3539   3.3976   3.4931
     3.9120   4.0393   4.1331   4.2112   4.7164   4.8623   5.6397   6.2011
     7.2078   7.6311

          k = 0.1521 0.0919 0.0000     band energies (ev):

  -114.1637-114.1637 -68.8284 -68.8273 -68.8192 -68.8188 -68.8178 -68.8170
    -8.5657  -8.3268   2.4898   2.6857   2.9710   3.3529   3.3981   3.4938
     3.9119   4.0386   4.1334   4.2111   4.7166   4.8631   5.6392   6.1987
     7.2066   7.6287

          k = 0.1503 0.0949 0.0000     band energies (ev):

  -114.1637-114.1637 -68.8284 -68.8273 -68.8192 -68.8188 -68.8178 -68.8170
    -8.5648  -8.3268   2.4917   2.6900   2.9702   3.3500   3.3994   3.4957
     3.9114   4.0367   4.1341   4.2107   4.7174   4.8655   5.6375   6.1917
     7.2029   7.6217

          k = 0.1485 0.0980 0.0000     band energies (ev):

  -114.1637-114.1637 -68.8284 -68.8273 -68.8192 -68.8188 -68.8178 -68.8170
    -8.5634  -8.3268   2.4949   2.6971   2.9688   3.3453   3.4017   3.4988
     3.9107   4.0337   4.1353   4.2102   4.7185   4.8693   5.6344   6.1805
     7.1968   7.6101

          k = 0.1468 0.1011 0.0000     band energies (ev):

  -114.1637-114.1637 -68.8284 -68.8273 -68.8192 -68.8188 -68.8178 -68.8170
    -8.5614  -8.3269   2.4994   2.7071   2.9670   3.3391   3.4048   3.5028
     3.9096   4.0295   4.1370   4.2093   4.7201   4.8747   5.6295   6.1657
     7.1882   7.5941

          k = 0.1450 0.1041 0.0000     band energies (ev):

  -114.1637-114.1637 -68.8284 -68.8273 -68.8192 -68.8188 -68.8178 -68.8170
    -8.5588  -8.3270   2.5051   2.7198   2.9648   3.3317   3.4089   3.5075
     3.9083   4.0243   4.1391   4.2081   4.7221   4.8813   5.6221   6.1483
     7.1771   7.5741

          k = 0.1432 0.1072 0.0000     band energies (ev):

  -114.1637-114.1637 -68.8284 -68.8273 -68.8192 -68.8187 -68.8179 -68.8170
    -8.5556  -8.3271   2.5119   2.7353   2.9623   3.3232   3.4137   3.5126
     3.9067   4.0183   4.1417   4.2064   4.7245   4.8893   5.6114   6.1295
     7.1634   7.5504

          k = 0.1415 0.1103 0.0000     band energies (ev):

  -114.1637-114.1637 -68.8284 -68.8273 -68.8191 -68.8187 -68.8179 -68.8171
    -8.5519  -8.3272   2.5198   2.7536   2.9595   3.3139   3.4193   3.5181
     3.9047   4.0116   4.1445   4.2043   4.7271   4.8982   5.5964   6.1107
     7.1471   7.5235

          k = 0.1397 0.1133 0.0000     band energies (ev):

  -114.1637-114.1637 -68.8284 -68.8273 -68.8191 -68.8187 -68.8179 -68.8171
    -8.5477  -8.3275   2.5286   2.7745   2.9566   3.3040   3.4257   3.5239
     3.9026   4.0044   4.1476   4.2015   4.7301   4.9082   5.5761   6.0934
     7.1282   7.4937

          k = 0.1379 0.1164 0.0000     band energies (ev):

  -114.1637-114.1637 -68.8283 -68.8273 -68.8191 -68.8187 -68.8179 -68.8171
    -8.5430  -8.3278   2.5384   2.7981   2.9537   3.2935   3.4329   3.5297
     3.9001   3.9967   4.1509   4.1981   4.7332   4.9188   5.5493   6.0793
     7.1066   7.4616

          k = 0.1362 0.1195 0.0000     band energies (ev):

  -114.1637-114.1637 -68.8283 -68.8274 -68.8191 -68.8187 -68.8179 -68.8172
    -8.5378  -8.3282   2.5489   2.8242   2.9510   3.2826   3.4407   3.5357
     3.8974   3.9887   4.1543   4.1941   4.7365   4.9299   5.5157   6.0694
     7.0825   7.4275

          k = 0.1344 0.1225 0.0000     band energies (ev):

  -114.1637-114.1637 -68.8283 -68.8274 -68.8191 -68.8187 -68.8180 -68.8172
    -8.5322  -8.3288   2.5601   2.8529   2.9484   3.2715   3.4492   3.5417
     3.8944   3.9806   4.1577   4.1893   4.7400   4.9414   5.4750   6.0644
     7.0559   7.3920

          k = 0.1326 0.1256 0.0000     band energies (ev):

  -114.1637-114.1637 -68.8283 -68.8274 -68.8191 -68.8187 -68.8180 -68.8172
    -8.5261  -8.3294   2.5717   2.8839   2.9463   3.2601   3.4585   3.5477
     3.8912   3.9724   4.1608   4.1837   4.7436   4.9529   5.4276   6.0648
     7.0270   7.3554

          k = 0.1309 0.1286 0.0000     band energies (ev):

  -114.1637-114.1637 -68.8283 -68.8274 -68.8191 -68.8187 -68.8180 -68.8173
    -8.5196  -8.3303   2.5836   2.9172   2.9448   3.2485   3.4684   3.5538
     3.8877   3.9644   4.1635   4.1773   4.7474   4.9641   5.3744   6.0702
     6.9962   7.3178

          k = 0.1291 0.1317 0.0000     band energies (ev):

  -114.1637-114.1637 -68.8283 -68.8274 -68.8190 -68.8186 -68.8181 -68.8173
    -8.5128  -8.3313   2.5956   2.9440   2.9527   3.2369   3.4789   3.5601
     3.8840   3.9565   4.1655   4.1700   4.7513   4.9749   5.3164   6.0803
     6.9638   7.2796

          k = 0.1273 0.1348 0.0000     band energies (ev):

  -114.1637-114.1637 -68.8282 -68.8274 -68.8190 -68.8186 -68.8181 -68.8173
    -8.5056  -8.3326   2.6074   2.9442   2.9900   3.2253   3.4902   3.5665
     3.8800   3.9490   4.1619   4.1666   4.7554   4.9850   5.2548   6.0947
     6.9303   7.2407

          k = 0.1256 0.1378 0.0000     band energies (ev):

  -114.1637-114.1637 -68.8282 -68.8275 -68.8190 -68.8186 -68.8181 -68.8174
    -8.4981  -8.3341   2.6189   2.9454   3.0290   3.2139   3.5022   3.5731
     3.8759   3.9420   4.1528   4.1664   4.7598   4.9939   5.1910   6.1129
     6.8963   7.2013

          k = 0.1238 0.1409 0.0000     band energies (ev):

  -114.1637-114.1637 -68.8282 -68.8275 -68.8190 -68.8186 -68.8182 -68.8174
    -8.4903  -8.3359   2.6297   2.9479   3.0693   3.2026   3.5149   3.5801
     3.8715   3.9354   4.1429   4.1644   4.7645   5.0015   5.1260   6.1345
     6.8625   7.1613

          k = 0.1220 0.1440 0.0000     band energies (ev):

  -114.1637-114.1637 -68.8282 -68.8275 -68.8189 -68.8186 -68.8182 -68.8175
    -8.4823  -8.3380   2.6398   2.9517   3.1100   3.1922   3.5284   3.5877
     3.8669   3.9295   4.1320   4.1602   4.7697   5.0075   5.0613   6.1591
     6.8295   7.1206

          k = 0.1202 0.1470 0.0000     band energies (ev):

  -114.1637-114.1637 -68.8281 -68.8275 -68.8189 -68.8185 -68.8182 -68.8175
    -8.4741  -8.3404   2.6488   2.9569   3.1474   3.1860   3.5427   3.5960
     3.8621   3.9243   4.1201   4.1530   4.7754   4.9981   5.0115   6.1864
     6.7979   7.0791

          k = 0.1185 0.1501 0.0000     band energies (ev):

  -114.1637-114.1637 -68.8281 -68.8276 -68.8189 -68.8185 -68.8183 -68.8176
    -8.4657  -8.3432   2.6568   2.9636   3.1591   3.2057   3.5578   3.6054
     3.8571   3.9200   4.1072   4.1423   4.7819   4.9377   5.0132   6.2162
     6.7684   7.0368

          k = 0.1167 0.1531 0.0000     band energies (ev):

  -114.1637-114.1637 -68.8281 -68.8276 -68.8189 -68.8185 -68.8183 -68.8176
    -8.4572  -8.3464   2.6635   2.9717   3.1512   3.2445   3.5738   3.6163
     3.8518   3.9165   4.0934   4.1275   4.7891   4.8816   5.0125   6.2483
     6.7414   6.9936

          k = 0.1149 0.1562 0.0000     band energies (ev):

  -114.1637-114.1637 -68.8280 -68.8276 -68.8188 -68.8185 -68.8183 -68.8176
    -8.4487  -8.3501   2.6691   2.9811   3.1409   3.2844   3.5907   3.6291
     3.8463   3.9141   4.0786   4.1081   4.7965   4.8317   5.0091   6.2824
     6.7175   6.9497

          k = 0.1132 0.1593 0.0000     band energies (ev):

  -114.1637-114.1637 -68.8280 -68.8276 -68.8188 -68.8185 -68.8184 -68.8177
    -8.4401  -8.3542   2.6735   2.9915   3.1301   3.3222   3.6085   3.6445
     3.8404   3.9129   4.0627   4.0840   4.7823   4.8111   5.0029   6.3183
     6.6968   6.9050

          k = 0.1114 0.1623 0.0000     band energies (ev):

  -114.1637-114.1637 -68.8280 -68.8277 -68.8188 -68.8185 -68.8184 -68.8177
    -8.4315  -8.3587   2.6769   3.0028   3.1191   3.3564   3.6272   3.6627
     3.8339   3.9129   4.0460   4.0557   4.7462   4.8210   4.9938   6.3560
     6.6793   6.8600

          k = 0.1096 0.1654 0.0000     band energies (ev):

  -114.1637-114.1637 -68.8280 -68.8277 -68.8188 -68.8185 -68.8184 -68.8177
    -8.4229  -8.3638   2.6793   3.0147   3.1081   3.3855   3.6466   3.6839
     3.8266   3.9144   4.0246   4.0283   4.7160   4.8340   4.9818   6.3952
     6.6645   6.8155

          k = 0.1079 0.1685 0.0000     band energies (ev):

  -114.1637-114.1637 -68.8279 -68.8277 -68.8187 -68.8185 -68.8185 -68.8177
    -8.4145  -8.3695   2.6810   3.0269   3.0970   3.4086   3.6667   3.7066
     3.8180   3.9175   3.9936   4.0097   4.6928   4.8490   4.9671   6.4359
     6.6505   6.7733

          k = 0.1061 0.1715 0.0000     band energies (ev):

  -114.1637-114.1637 -68.8279 -68.8278 -68.8187 -68.8185 -68.8185 -68.8178
    -8.4062  -8.3758   2.6820   3.0392   3.0859   3.4253   3.6872   3.7273
     3.8077   3.9224   3.9677   3.9905   4.6765   4.8663   4.9496   6.4778
     6.6329   6.7381

          k = 0.1043 0.1746 0.0000     band energies (ev):

  -114.1637-114.1637 -68.8279 -68.8278 -68.8187 -68.8185 -68.8185 -68.8178
    -8.3980  -8.3826   2.6826   3.0513   3.0746   3.4354   3.7077   3.7377
     3.7982   3.9291   3.9530   3.9709   4.6669   4.8858   4.9297   6.5209
     6.6050   6.7166

          k = 0.1026 0.1776 0.0000     band energies (ev):

  -114.1637-114.1637 -68.8278 -68.8278 -68.8187 -68.8185 -68.8185 -68.8178
    -8.3901  -8.3901   2.6827   3.0632   3.0632   3.4388   3.7278   3.7278
     3.7952   3.9347   3.9545   3.9545   4.6637   4.9076   4.9076   6.5650
     6.5650   6.7104

          k = 0.1026 0.1776 0.0036     band energies (ev):

  -114.1637-114.1637 -68.8278 -68.8278 -68.8187 -68.8185 -68.8185 -68.8178
    -8.3900  -8.3900   2.6831   3.0619   3.0619   3.4372   3.7239   3.7239
     3.7956   3.9346   3.9589   3.9589   4.6661   4.9070   4.9070   6.5675
     6.5675   6.7086

          k = 0.1026 0.1776 0.0071     band energies (ev):

  -114.1637-114.1637 -68.8278 -68.8278 -68.8187 -68.8185 -68.8185 -68.8178
    -8.3899  -8.3899   2.6841   3.0582   3.0582   3.4324   3.7130   3.7130
     3.7965   3.9343   3.9711   3.9711   4.6730   4.9049   4.9049   6.5752
     6.5752   6.7035

          k = 0.1026 0.1776 0.0107     band energies (ev):

  -114.1637-114.1637 -68.8278 -68.8278 -68.8187 -68.8185 -68.8185 -68.8178
    -8.3897  -8.3897   2.6858   3.0520   3.0520   3.4245   3.6973   3.6973
     3.7980   3.9338   3.9891   3.9891   4.6845   4.9016   4.9016   6.5877
     6.5877   6.6950

          k = 0.1026 0.1776 0.0142     band energies (ev):

  -114.1637-114.1637 -68.8278 -68.8278 -68.8187 -68.8185 -68.8185 -68.8178
    -8.3894  -8.3894   2.6882   3.0434   3.0434   3.4139   3.6788   3.6788
     3.7999   3.9332   4.0109   4.0109   4.7004   4.8971   4.8971   6.6050
     6.6050   6.6831

          k = 0.1026 0.1776 0.0178     band energies (ev):

  -114.1637-114.1637 -68.8278 -68.8278 -68.8187 -68.8185 -68.8185 -68.8178
    -8.3891  -8.3891   2.6913   3.0325   3.0325   3.4006   3.6590   3.6590
     3.8023   3.9323   4.0350   4.0350   4.7204   4.8914   4.8914   6.6267
     6.6267   6.6679

          k = 0.1026 0.1776 0.0214     band energies (ev):

  -114.1637-114.1637 -68.8278 -68.8278 -68.8187 -68.8185 -68.8185 -68.8178
    -8.3886  -8.3886   2.6951   3.0194   3.0194   3.3852   3.6391   3.6391
     3.8049   3.9313   4.0603   4.0603   4.7443   4.8848   4.8848   6.6495
     6.6525   6.6525

          k = 0.1026 0.1776 0.0249     band energies (ev):

  -114.1637-114.1637 -68.8278 -68.8278 -68.8187 -68.8185 -68.8185 -68.8178
    -8.3881  -8.3881   2.6995   3.0042   3.0042   3.3679   3.6196   3.6196
     3.8078   3.9301   4.0862   4.0862   4.7718   4.8772   4.8772   6.6279
     6.6819   6.6819

          k = 0.1026 0.1776 0.0285     band energies (ev):

  -114.1637-114.1637 -68.8278 -68.8278 -68.8187 -68.8184 -68.8184 -68.8178
    -8.3876  -8.3876   2.7047   2.9872   2.9872   3.3489   3.6011   3.6011
     3.8109   3.9287   4.1121   4.1121   4.8028   4.8689   4.8689   6.6033
     6.7146   6.7146

          k = 0.1026 0.1776 0.0321     band energies (ev):

  -114.1637-114.1637 -68.8278 -68.8278 -68.8186 -68.8184 -68.8184 -68.8178
    -8.3869  -8.3869   2.7105   2.9686   2.9686   3.3287   3.5838   3.5838
     3.8140   3.9272   4.1378   4.1378   4.8368   4.8600   4.8600   6.5758
     6.7500   6.7500

          k = 0.1026 0.1776 0.0356     band energies (ev):

  -114.1637-114.1637 -68.8279 -68.8279 -68.8186 -68.8184 -68.8184 -68.8179
    -8.3863  -8.3863   2.7170   2.9486   2.9486   3.3074   3.5678   3.5678
     3.8173   3.9255   4.1629   4.1629   4.8505   4.8505   4.8737   6.5454
     6.7876   6.7876

          k = 0.1026 0.1776 0.0392     band energies (ev):

  -114.1637-114.1637 -68.8279 -68.8279 -68.8186 -68.8184 -68.8184 -68.8179
    -8.3856  -8.3856   2.7242   2.9276   2.9276   3.2854   3.5532   3.5532
     3.8206   3.9236   4.1874   4.1874   4.8407   4.8407   4.9132   6.5124
     6.8268   6.8268

          k = 0.1026 0.1776 0.0427     band energies (ev):

  -114.1637-114.1637 -68.8279 -68.8279 -68.8186 -68.8184 -68.8184 -68.8179
    -8.3849  -8.3849   2.7321   2.9059   2.9059   3.2627   3.5400   3.5400
     3.8239   3.9215   4.2111   4.2111   4.8306   4.8306   4.9550   6.4768
     6.8672   6.8672

          k = 0.1026 0.1776 0.0463     band energies (ev):

  -114.1637-114.1637 -68.8279 -68.8279 -68.8186 -68.8184 -68.8184 -68.8179
    -8.3842  -8.3842   2.7408   2.8839   2.8839   3.2396   3.5282   3.5282
     3.8273   3.9193   4.2340   4.2340   4.8203   4.8203   4.9989   6.4388
     6.9082   6.9082

          k = 0.1026 0.1776 0.0499     band energies (ev):

  -114.1637-114.1637 -68.8279 -68.8279 -68.8186 -68.8184 -68.8184 -68.8179
    -8.3834  -8.3834   2.7501   2.8619   2.8619   3.2163   3.5176   3.5176
     3.8307   3.9170   4.2558   4.2558   4.8100   4.8100   5.0447   6.3985
     6.9493   6.9493

          k = 0.1026 0.1776 0.0534     band energies (ev):

  -114.1637-114.1637 -68.8279 -68.8279 -68.8185 -68.8184 -68.8184 -68.8179
    -8.3827  -8.3827   2.7601   2.8403   2.8403   3.1928   3.5082   3.5082
     3.8342   3.9145   4.2767   4.2767   4.7997   4.7997   5.0923   6.3561
     6.9899   6.9899

          k = 0.1026 0.1776 0.0570     band energies (ev):

  -114.1637-114.1637 -68.8279 -68.8279 -68.8185 -68.8184 -68.8184 -68.8180
    -8.3820  -8.3820   2.7708   2.8192   2.8192   3.1694   3.4999   3.4999
     3.8377   3.9119   4.2964   4.2964   4.7895   4.7895   5.1413   6.3118
     7.0295   7.0295

          k = 0.1026 0.1776 0.0605     band energies (ev):

  -114.1637-114.1637 -68.8279 -68.8279 -68.8185 -68.8184 -68.8184 -68.8180
    -8.3813  -8.3813   2.7822   2.7991   2.7991   3.1461   3.4926   3.4926
     3.8412   3.9092   4.3150   4.3150   4.7795   4.7795   5.1917   6.2656
     7.0676   7.0676

          k = 0.1026 0.1776 0.0641     band energies (ev):

  -114.1637-114.1637 -68.8279 -68.8279 -68.8185 -68.8184 -68.8184 -68.8180
    -8.3807  -8.3807   2.7801   2.7801   2.7943   3.1230   3.4862   3.4862
     3.8447   3.9064   4.3323   4.3323   4.7699   4.7699   5.2434   6.2178
     7.1037   7.1037

          k = 0.1026 0.1776 0.0677     band energies (ev):

  -114.1637-114.1637 -68.8279 -68.8279 -68.8184 -68.8184 -68.8184 -68.8180
    -8.3801  -8.3801   2.7626   2.7626   2.8070   3.1001   3.4807   3.4807
     3.8483   3.9034   4.3484   4.3484   4.7607   4.7607   5.2960   6.1685
     7.1374   7.1374

          k = 0.1026 0.1776 0.0712     band energies (ev):

  -114.1637-114.1637 -68.8279 -68.8279 -68.8184 -68.8184 -68.8184 -68.8181
    -8.3795  -8.3795   2.7466   2.7466   2.8205   3.0777   3.4759   3.4759
     3.8518   3.9004   4.3630   4.3630   4.7520   4.7520   5.3496   6.1178
     7.1681   7.1682

          k = 0.1026 0.1776 0.0748     band energies (ev):

  -114.1637-114.1637 -68.8279 -68.8279 -68.8184 -68.8184 -68.8184 -68.8181
    -8.3790  -8.3790   2.7325   2.7325   2.8347   3.0556   3.4719   3.4719
     3.8554   3.8972   4.3762   4.3762   4.7440   4.7440   5.4039   6.0660
     7.1957   7.1957

          k = 0.1026 0.1776 0.0783     band energies (ev):

  -114.1637-114.1637 -68.8279 -68.8279 -68.8184 -68.8184 -68.8184 -68.8181
    -8.3786  -8.3786   2.7202   2.7202   2.8496   3.0340   3.4686   3.4686
     3.8590   3.8940   4.3876   4.3876   4.7368   4.7368   5.4589   6.0131
     7.2196   7.2196

          k = 0.1026 0.1776 0.0819     band energies (ev):

  -114.1637-114.1637 -68.8279 -68.8279 -68.8184 -68.8184 -68.8183 -68.8181
    -8.3782  -8.3782   2.7100   2.7100   2.8651   3.0129   3.4659   3.4659
     3.8626   3.8907   4.3973   4.3973   4.7307   4.7307   5.5143   5.9594
     7.2396   7.2396

          k = 0.1026 0.1776 0.0855     band energies (ev):

  -114.1637-114.1637 -68.8279 -68.8279 -68.8184 -68.8184 -68.8183 -68.8182
    -8.3779  -8.3779   2.7020   2.7020   2.8813   2.9923   3.4639   3.4639
     3.8662   3.8873   4.4051   4.4051   4.7256   4.7256   5.5701   5.9048
     7.2555   7.2555

          k = 0.1026 0.1776 0.0890     band energies (ev):

  -114.1637-114.1637 -68.8279 -68.8279 -68.8184 -68.8184 -68.8183 -68.8182
    -8.3777  -8.3777   2.6962   2.6962   2.8982   2.9722   3.4624   3.4624
     3.8698   3.8839   4.4107   4.4107   4.7219   4.7219   5.6261   5.8497
     7.2669   7.2669

          k = 0.1026 0.1776 0.0926     band energies (ev):

  -114.1637-114.1637 -68.8279 -68.8279 -68.8184 -68.8184 -68.8183 -68.8182
    -8.3776  -8.3776   2.6927   2.6927   2.9158   2.9528   3.4615   3.4615
     3.8733   3.8804   4.4142   4.4142   4.7196   4.7196   5.6822   5.7942
     7.2739   7.2739

          k = 0.1026 0.1776 0.0962     band energies (ev):

  -114.1637-114.1637 -68.8279 -68.8279 -68.8184 -68.8184 -68.8182 -68.8182
    -8.3775  -8.3775   2.6916   2.6916   2.9340   2.9340   3.4613   3.4613
     3.8769   3.8769   4.4153   4.4153   4.7188   4.7188   5.7383   5.7383
     7.2762   7.2762

     Writing output data file Zn2O2.save
 
     init_run     :      1.38s CPU      1.66s WALL (       1 calls)
     electrons    :    131.76s CPU    191.46s WALL (       1 calls)

     Called by init_run:
     wfcinit      :      0.00s CPU      0.00s WALL (       1 calls)
     potinit      :      0.14s CPU      0.22s WALL (       1 calls)

     Called by electrons:
     c_bands      :    131.76s CPU    191.46s WALL (       1 calls)
     v_of_rho     :      0.01s CPU      0.01s WALL (       1 calls)
     v_h          :      0.00s CPU      0.00s WALL (       1 calls)
     v_xc         :      0.00s CPU      0.00s WALL (       1 calls)

     Called by c_bands:
     init_us_2    :      0.01s CPU      0.03s WALL (      75 calls)
     cegterg      :    106.41s CPU    107.71s WALL (      75 calls)

     Called by sum_band:

     Called by *egterg:
     h_psi        :     86.65s CPU     87.41s WALL (    1342 calls)
     g_psi        :      0.20s CPU      0.52s WALL (    1192 calls)
     cdiaghg      :     13.26s CPU     12.95s WALL (    1267 calls)
     cegterg:over :      5.14s CPU      5.24s WALL (    1192 calls)
     cegterg:upda :      5.04s CPU      5.47s WALL (    1192 calls)
     cegterg:last :      2.77s CPU      3.06s WALL (     375 calls)
     cdiaghg:chol :      1.02s CPU      0.53s WALL (    1267 calls)
     cdiaghg:inve :      0.04s CPU      0.12s WALL (    1267 calls)
     cdiaghg:para :      0.64s CPU      0.87s WALL (    2534 calls)

     Called by h_psi:
     h_psi:vloc   :     85.97s CPU     86.21s WALL (    1342 calls)
     h_psi:vnl    :      0.60s CPU      1.01s WALL (    1342 calls)
     add_vuspsi   :      0.09s CPU      0.42s WALL (    1342 calls)

     General routines
     calbec       :      0.51s CPU      0.58s WALL (    1342 calls)
     fft          :      0.02s CPU      0.02s WALL (       4 calls)
     fftw         :     85.37s CPU     83.62s WALL (   59972 calls)
     davcio       :      0.00s CPU      0.10s WALL (      75 calls)
 
     Parallel routines
     fft_scatter  :     70.51s CPU     33.27s WALL (   59976 calls)
 
     PWSCF        :  2m14.22s CPU     3m18.83s WALL

 
   This run was terminated on:  22:58: 6  26Jun2013            

=------------------------------------------------------------------------------=
   JOB DONE.
=------------------------------------------------------------------------------=
Application 2755856 resources: utime ~9443s, stime ~88s, Rss ~36252, inblocks ~307666, outblocks ~3046495
