
     Program PWSCF v.6.7MaX starts on 18Jan2024 at  9:34:14 

     This program is part of the open-source Quantum ESPRESSO suite
     for quantum simulation of materials; please cite
         "P. Giannozzi et al., J. Phys.:Condens. Matter 21 395502 (2009);
         "P. Giannozzi et al., J. Phys.:Condens. Matter 29 465901 (2017);
          URL http://www.quantum-espresso.org", 
     in publications or presentations arising from this work. More details at
     http://www.quantum-espresso.org/quote

     Parallel version (MPI), running on   512 processors

     MPI processes distributed on     8 nodes
     K-points division:     npool     =      32
     R & G space division:  proc/nbgrp/npool/nimage =      16
     Reading input from wfn.in

     Current dimensions of program PWSCF are:
     Max number of different atomic species (ntypx) = 10
     Max number of k-points (npk) =  40000
     Max angular momentum in pseudopotentials (lmaxx) =  3
     Message from routine cell_base_init:
     DEPRECATED: use true lattice parameter, not A to a.u. conversion factor

     Atomic positions and unit cell read from directory:
     ./Si.save/
     Atomic positions from file used, from input discarded

     Message from routine read_pp_mesh:
     mesh size missing, using the one in header

     Subspace diagonalization in iterative solution of the eigenvalue problem:
     a serial algorithm will be used

     Message from routine setup:
     using ibrav=0 with symmetry is DISCOURAGED, use correct ibrav instead

     Parallelization info
     --------------------
     sticks:   dense  smooth     PW     G-vecs:    dense   smooth      PW
     Min         128     128     32                 3820     3820     488
     Max         129     129     34                 3824     3824     490
     Sum        2053    2053    517                61143    61143    7823



     bravais-lattice index     =            0
     lattice parameter (alat)  =       1.0000  a.u.
     unit-cell volume          =     272.4307 (a.u.)^3
     number of atoms/cell      =            2
     number of atomic types    =            1
     number of electrons       =         8.00
     number of Kohn-Sham states=           15
     kinetic-energy cutoff     =     140.0000  Ry
     charge density cutoff     =     560.0000  Ry
     Exchange-correlation= PBE
                           (   1   4   3   4   0   0   0)

     celldm(1)=   1.000000  celldm(2)=   0.000000  celldm(3)=   0.000000
     celldm(4)=   0.000000  celldm(5)=   0.000000  celldm(6)=   0.000000

     crystal axes: (cart. coord. in units of alat)
               a(1) = (   0.000000   5.145276   5.145276 )  
               a(2) = (   5.145276   0.000000   5.145276 )  
               a(3) = (   5.145276   5.145276   0.000000 )  

     reciprocal axes: (cart. coord. in units 2 pi/alat)
               b(1) = ( -0.097177  0.097177  0.097177 )  
               b(2) = (  0.097177 -0.097177  0.097177 )  
               b(3) = (  0.097177  0.097177 -0.097177 )  


     PseudoPot. # 1 for Si read from file:
     ../../pseudos/Si.upf
     MD5 check sum: 3f156eda2279325da2083dedf8f436a5
     Pseudo is Norm-conserving + core correction, Zval =  4.0
     Generated using ONCVPSP code by D. R. Hamann
     Using radial grid of 1510 points,  6 beta functions with: 
                l(1) =   0
                l(2) =   0
                l(3) =   1
                l(4) =   1
                l(5) =   2
                l(6) =   2

     atomic species   valence    mass     pseudopotential
        Si             4.00    28.08550     Si( 1.00)

      2 Sym. Ops. (no inversion) found



   Cartesian axes

     site n.     atom                  positions (alat units)
         1           Si  tau(   1) = (   0.0000000   0.0000000   0.0000000  )
         2           Si  tau(   2) = (   2.5717766   7.7153299   7.7153299  )

     number of k points=  1331

     Number of k-points >= 100: set verbosity='high' to print them.

     Dense  grid:    61143 G-vectors     FFT dimensions: (  60,  60,  60)

     Estimated max dynamical RAM per process >       4.79 MB

     Estimated total dynamical RAM >       2.40 GB

     The potential is recalculated from file :
     ./Si.save/charge-density

     Starting wfcs are    8 randomized atomic wfcs +    7 random wfcs

     Band Structure Calculation
     Davidson diagonalization with overlap

     ethr =  1.25E-12,  avg # of iterations = 16.4

     total cpu time spent up to now is        5.9 secs

     End of band structure calculation

     Number of k-points >= 100: set verbosity='high' to print the bands.

     Writing output data file ./Si.save/

     init_run     :      0.05s CPU      0.09s WALL (       1 calls)
     electrons    :      5.05s CPU      5.24s WALL (       1 calls)

     Called by init_run:
     wfcinit      :      0.00s CPU      0.02s WALL (       1 calls)
     potinit      :      0.02s CPU      0.04s WALL (       1 calls)
     hinit0       :      0.01s CPU      0.01s WALL (       1 calls)

     Called by electrons:
     c_bands      :      5.05s CPU      5.23s WALL (       1 calls)
     v_of_rho     :      0.01s CPU      0.01s WALL (       1 calls)

     Called by c_bands:
     init_us_2    :      0.00s CPU      0.01s WALL (      42 calls)
     cegterg      :      4.25s CPU      4.37s WALL (      42 calls)

     Called by *egterg:
     cdiaghg      :      0.37s CPU      0.39s WALL (     696 calls)
     h_psi        :      3.32s CPU      3.43s WALL (     738 calls)
     g_psi        :      0.01s CPU      0.01s WALL (     654 calls)

     Called by h_psi:
     h_psi:calbec :      0.18s CPU      0.19s WALL (     738 calls)
     vloc_psi     :      2.97s CPU      3.07s WALL (     738 calls)
     add_vuspsi   :      0.15s CPU      0.16s WALL (     738 calls)

     General routines
     calbec       :      0.18s CPU      0.19s WALL (     738 calls)
     fft          :      0.01s CPU      0.01s WALL (      11 calls)
     fftw         :      2.76s CPU      2.86s WALL (   17510 calls)
     davcio       :      0.01s CPU      0.01s WALL (      84 calls)

     Parallel routines
     fft_scatt_xy :      0.23s CPU      0.24s WALL (   17521 calls)
     fft_scatt_yz :      0.95s CPU      0.99s WALL (   17521 calls)

     PWSCF        :      5.82s CPU      6.37s WALL


   This run was terminated on:   9:34:21  18Jan2024            

=------------------------------------------------------------------------------=
   JOB DONE.
=------------------------------------------------------------------------------=
