File written on 27Sep2012 at 16:21:47 

calc_only_A  :  F

begin real_lattice
   0.0000000   2.7149966   2.7149966
   2.7149966   0.0000000   2.7149966
   2.7149966   2.7149966   0.0000000
end real_lattice

begin recip_lattice
  -1.1571258   1.1571258   1.1571258
   1.1571258  -1.1571258   1.1571258
   1.1571258   1.1571258  -1.1571258
end recip_lattice

begin kpoints
   125
    0.00000000    0.00000000    0.00000000
    0.00000000    0.00000000    0.20000000
    0.00000000    0.00000000    0.40000000
    0.00000000    0.00000000    0.60000000
    0.00000000    0.00000000    0.80000000
    0.00000000    0.20000000    0.00000000
    0.00000000    0.20000000    0.20000000
    0.00000000    0.20000000    0.40000000
    0.00000000    0.20000000    0.60000000
    0.00000000    0.20000000    0.80000000
    0.00000000    0.40000000    0.00000000
    0.00000000    0.40000000    0.20000000
    0.00000000    0.40000000    0.40000000
    0.00000000    0.40000000    0.60000000
    0.00000000    0.40000000    0.80000000
    0.00000000    0.60000000    0.00000000
    0.00000000    0.60000000    0.20000000
    0.00000000    0.60000000    0.40000000
    0.00000000    0.60000000    0.60000000
    0.00000000    0.60000000    0.80000000
    0.00000000    0.80000000    0.00000000
    0.00000000    0.80000000    0.20000000
    0.00000000    0.80000000    0.40000000
    0.00000000    0.80000000    0.60000000
    0.00000000    0.80000000    0.80000000
    0.20000000    0.00000000    0.00000000
    0.20000000    0.00000000    0.20000000
    0.20000000    0.00000000    0.40000000
    0.20000000    0.00000000    0.60000000
    0.20000000    0.00000000    0.80000000
    0.20000000    0.20000000    0.00000000
    0.20000000    0.20000000    0.20000000
    0.20000000    0.20000000    0.40000000
    0.20000000    0.20000000    0.60000000
    0.20000000    0.20000000    0.80000000
    0.20000000    0.40000000    0.00000000
    0.20000000    0.40000000    0.20000000
    0.20000000    0.40000000    0.40000000
    0.20000000    0.40000000    0.60000000
    0.20000000    0.40000000    0.80000000
    0.20000000    0.60000000    0.00000000
    0.20000000    0.60000000    0.20000000
    0.20000000    0.60000000    0.40000000
    0.20000000    0.60000000    0.60000000
    0.20000000    0.60000000    0.80000000
    0.20000000    0.80000000    0.00000000
    0.20000000    0.80000000    0.20000000
    0.20000000    0.80000000    0.40000000
    0.20000000    0.80000000    0.60000000
    0.20000000    0.80000000    0.80000000
    0.40000000    0.00000000    0.00000000
    0.40000000    0.00000000    0.20000000
    0.40000000    0.00000000    0.40000000
    0.40000000    0.00000000    0.60000000
    0.40000000    0.00000000    0.80000000
    0.40000000    0.20000000    0.00000000
    0.40000000    0.20000000    0.20000000
    0.40000000    0.20000000    0.40000000
    0.40000000    0.20000000    0.60000000
    0.40000000    0.20000000    0.80000000
    0.40000000    0.40000000    0.00000000
    0.40000000    0.40000000    0.20000000
    0.40000000    0.40000000    0.40000000
    0.40000000    0.40000000    0.60000000
    0.40000000    0.40000000    0.80000000
    0.40000000    0.60000000    0.00000000
    0.40000000    0.60000000    0.20000000
    0.40000000    0.60000000    0.40000000
    0.40000000    0.60000000    0.60000000
    0.40000000    0.60000000    0.80000000
    0.40000000    0.80000000    0.00000000
    0.40000000    0.80000000    0.20000000
    0.40000000    0.80000000    0.40000000
    0.40000000    0.80000000    0.60000000
    0.40000000    0.80000000    0.80000000
    0.60000000    0.00000000    0.00000000
    0.60000000    0.00000000    0.20000000
    0.60000000    0.00000000    0.40000000
    0.60000000    0.00000000    0.60000000
    0.60000000    0.00000000    0.80000000
    0.60000000    0.20000000    0.00000000
    0.60000000    0.20000000    0.20000000
    0.60000000    0.20000000    0.40000000
    0.60000000    0.20000000    0.60000000
    0.60000000    0.20000000    0.80000000
    0.60000000    0.40000000    0.00000000
    0.60000000    0.40000000    0.20000000
    0.60000000    0.40000000    0.40000000
    0.60000000    0.40000000    0.60000000
    0.60000000    0.40000000    0.80000000
    0.60000000    0.60000000    0.00000000
    0.60000000    0.60000000    0.20000000
    0.60000000    0.60000000    0.40000000
    0.60000000    0.60000000    0.60000000
    0.60000000    0.60000000    0.80000000
    0.60000000    0.80000000    0.00000000
    0.60000000    0.80000000    0.20000000
    0.60000000    0.80000000    0.40000000
    0.60000000    0.80000000    0.60000000
    0.60000000    0.80000000    0.80000000
    0.80000000    0.00000000    0.00000000
    0.80000000    0.00000000    0.20000000
    0.80000000    0.00000000    0.40000000
    0.80000000    0.00000000    0.60000000
    0.80000000    0.00000000    0.80000000
    0.80000000    0.20000000    0.00000000
    0.80000000    0.20000000    0.20000000
    0.80000000    0.20000000    0.40000000
    0.80000000    0.20000000    0.60000000
    0.80000000    0.20000000    0.80000000
    0.80000000    0.40000000    0.00000000
    0.80000000    0.40000000    0.20000000
    0.80000000    0.40000000    0.40000000
    0.80000000    0.40000000    0.60000000
    0.80000000    0.40000000    0.80000000
    0.80000000    0.60000000    0.00000000
    0.80000000    0.60000000    0.20000000
    0.80000000    0.60000000    0.40000000
    0.80000000    0.60000000    0.60000000
    0.80000000    0.60000000    0.80000000
    0.80000000    0.80000000    0.00000000
    0.80000000    0.80000000    0.20000000
    0.80000000    0.80000000    0.40000000
    0.80000000    0.80000000    0.60000000
    0.80000000    0.80000000    0.80000000
end kpoints

begin projections
     8
  -0.12500   -0.12500   -0.12500    -3  1  1
    0.0000000  0.0000000  1.0000000   1.0000000  0.0000000  0.0000000    1.00
  -0.12500   -0.12500   -0.12500    -3  2  1
    0.0000000  0.0000000  1.0000000   1.0000000  0.0000000  0.0000000    1.00
  -0.12500   -0.12500   -0.12500    -3  3  1
    0.0000000  0.0000000  1.0000000   1.0000000  0.0000000  0.0000000    1.00
  -0.12500   -0.12500   -0.12500    -3  4  1
    0.0000000  0.0000000  1.0000000   1.0000000  0.0000000  0.0000000    1.00
   0.12500    0.12500    0.12500    -3  1  1
    0.0000000  0.0000000  1.0000000   1.0000000  0.0000000  0.0000000    1.00
   0.12500    0.12500    0.12500    -3  2  1
    0.0000000  0.0000000  1.0000000   1.0000000  0.0000000  0.0000000    1.00
   0.12500    0.12500    0.12500    -3  3  1
    0.0000000  0.0000000  1.0000000   1.0000000  0.0000000  0.0000000    1.00
   0.12500    0.12500    0.12500    -3  4  1
    0.0000000  0.0000000  1.0000000   1.0000000  0.0000000  0.0000000    1.00
end projections

begin nnkpts
   8
     1     2      0   0   0
     1     6      0   0   0
     1    26      0   0   0
     1    32      0   0   0
     1     5      0   0  -1
     1    21      0  -1   0
     1   101     -1   0   0
     1   125     -1  -1  -1
     2     1      0   0   0
     2     3      0   0   0
     2     7      0   0   0
     2    27      0   0   0
     2    33      0   0   0
     2    22      0  -1   0
     2   102     -1   0   0
     2   121     -1  -1   0
     3     2      0   0   0
     3     4      0   0   0
     3     8      0   0   0
     3    28      0   0   0
     3    34      0   0   0
     3    23      0  -1   0
     3   103     -1   0   0
     3   122     -1  -1   0
     4     3      0   0   0
     4     5      0   0   0
     4     9      0   0   0
     4    29      0   0   0
     4    35      0   0   0
     4    24      0  -1   0
     4   104     -1   0   0
     4   123     -1  -1   0
     5     4      0   0   0
     5    10      0   0   0
     5    30      0   0   0
     5     1      0   0   1
     5    31      0   0   1
     5    25      0  -1   0
     5   105     -1   0   0
     5   124     -1  -1   0
     6     1      0   0   0
     6     7      0   0   0
     6    11      0   0   0
     6    31      0   0   0
     6    37      0   0   0
     6    10      0   0  -1
     6   106     -1   0   0
     6   105     -1   0  -1
     7     2      0   0   0
     7     6      0   0   0
     7     8      0   0   0
     7    12      0   0   0
     7    32      0   0   0
     7    38      0   0   0
     7   101     -1   0   0
     7   107     -1   0   0
     8     3      0   0   0
     8     7      0   0   0
     8     9      0   0   0
     8    13      0   0   0
     8    33      0   0   0
     8    39      0   0   0
     8   102     -1   0   0
     8   108     -1   0   0
     9     4      0   0   0
     9     8      0   0   0
     9    10      0   0   0
     9    14      0   0   0
     9    34      0   0   0
     9    40      0   0   0
     9   103     -1   0   0
     9   109     -1   0   0
    10     5      0   0   0
    10     9      0   0   0
    10    15      0   0   0
    10    35      0   0   0
    10     6      0   0   1
    10    36      0   0   1
    10   104     -1   0   0
    10   110     -1   0   0
    11     6      0   0   0
    11    12      0   0   0
    11    16      0   0   0
    11    36      0   0   0
    11    42      0   0   0
    11    15      0   0  -1
    11   111     -1   0   0
    11   110     -1   0  -1
    12     7      0   0   0
    12    11      0   0   0
    12    13      0   0   0
    12    17      0   0   0
    12    37      0   0   0
    12    43      0   0   0
    12   106     -1   0   0
    12   112     -1   0   0
    13     8      0   0   0
    13    12      0   0   0
    13    14      0   0   0
    13    18      0   0   0
    13    38      0   0   0
    13    44      0   0   0
    13   107     -1   0   0
    13   113     -1   0   0
    14     9      0   0   0
    14    13      0   0   0
    14    15      0   0   0
    14    19      0   0   0
    14    39      0   0   0
    14    45      0   0   0
    14   108     -1   0   0
    14   114     -1   0   0
    15    10      0   0   0
    15    14      0   0   0
    15    20      0   0   0
    15    40      0   0   0
    15    11      0   0   1
    15    41      0   0   1
    15   109     -1   0   0
    15   115     -1   0   0
    16    11      0   0   0
    16    17      0   0   0
    16    21      0   0   0
    16    41      0   0   0
    16    47      0   0   0
    16    20      0   0  -1
    16   116     -1   0   0
    16   115     -1   0  -1
    17    12      0   0   0
    17    16      0   0   0
    17    18      0   0   0
    17    22      0   0   0
    17    42      0   0   0
    17    48      0   0   0
    17   111     -1   0   0
    17   117     -1   0   0
    18    13      0   0   0
    18    17      0   0   0
    18    19      0   0   0
    18    23      0   0   0
    18    43      0   0   0
    18    49      0   0   0
    18   112     -1   0   0
    18   118     -1   0   0
    19    14      0   0   0
    19    18      0   0   0
    19    20      0   0   0
    19    24      0   0   0
    19    44      0   0   0
    19    50      0   0   0
    19   113     -1   0   0
    19   119     -1   0   0
    20    15      0   0   0
    20    19      0   0   0
    20    25      0   0   0
    20    45      0   0   0
    20    16      0   0   1
    20    46      0   0   1
    20   114     -1   0   0
    20   120     -1   0   0
    21    16      0   0   0
    21    22      0   0   0
    21    46      0   0   0
    21     1      0   1   0
    21    27      0   1   0
    21    25      0   0  -1
    21   121     -1   0   0
    21   120     -1   0  -1
    22    17      0   0   0
    22    21      0   0   0
    22    23      0   0   0
    22    47      0   0   0
    22     2      0   1   0
    22    28      0   1   0
    22   116     -1   0   0
    22   122     -1   0   0
    23    18      0   0   0
    23    22      0   0   0
    23    24      0   0   0
    23    48      0   0   0
    23     3      0   1   0
    23    29      0   1   0
    23   117     -1   0   0
    23   123     -1   0   0
    24    19      0   0   0
    24    23      0   0   0
    24    25      0   0   0
    24    49      0   0   0
    24     4      0   1   0
    24    30      0   1   0
    24   118     -1   0   0
    24   124     -1   0   0
    25    20      0   0   0
    25    24      0   0   0
    25    50      0   0   0
    25     5      0   1   0
    25    21      0   0   1
    25   119     -1   0   0
    25   125     -1   0   0
    25    26      0   1   1
    26     1      0   0   0
    26    27      0   0   0
    26    31      0   0   0
    26    51      0   0   0
    26    57      0   0   0
    26    30      0   0  -1
    26    46      0  -1   0
    26    25      0  -1  -1
    27     2      0   0   0
    27    26      0   0   0
    27    28      0   0   0
    27    32      0   0   0
    27    52      0   0   0
    27    58      0   0   0
    27    21      0  -1   0
    27    47      0  -1   0
    28     3      0   0   0
    28    27      0   0   0
    28    29      0   0   0
    28    33      0   0   0
    28    53      0   0   0
    28    59      0   0   0
    28    22      0  -1   0
    28    48      0  -1   0
    29     4      0   0   0
    29    28      0   0   0
    29    30      0   0   0
    29    34      0   0   0
    29    54      0   0   0
    29    60      0   0   0
    29    23      0  -1   0
    29    49      0  -1   0
    30     5      0   0   0
    30    29      0   0   0
    30    35      0   0   0
    30    55      0   0   0
    30    26      0   0   1
    30    56      0   0   1
    30    24      0  -1   0
    30    50      0  -1   0
    31     6      0   0   0
    31    26      0   0   0
    31    32      0   0   0
    31    36      0   0   0
    31    56      0   0   0
    31    62      0   0   0
    31     5      0   0  -1
    31    35      0   0  -1
    32     1      0   0   0
    32     7      0   0   0
    32    27      0   0   0
    32    31      0   0   0
    32    33      0   0   0
    32    37      0   0   0
    32    57      0   0   0
    32    63      0   0   0
    33     2      0   0   0
    33     8      0   0   0
    33    28      0   0   0
    33    32      0   0   0
    33    34      0   0   0
    33    38      0   0   0
    33    58      0   0   0
    33    64      0   0   0
    34     3      0   0   0
    34     9      0   0   0
    34    29      0   0   0
    34    33      0   0   0
    34    35      0   0   0
    34    39      0   0   0
    34    59      0   0   0
    34    65      0   0   0
    35     4      0   0   0
    35    10      0   0   0
    35    30      0   0   0
    35    34      0   0   0
    35    40      0   0   0
    35    60      0   0   0
    35    31      0   0   1
    35    61      0   0   1
    36    11      0   0   0
    36    31      0   0   0
    36    37      0   0   0
    36    41      0   0   0
    36    61      0   0   0
    36    67      0   0   0
    36    10      0   0  -1
    36    40      0   0  -1
    37     6      0   0   0
    37    12      0   0   0
    37    32      0   0   0
    37    36      0   0   0
    37    38      0   0   0
    37    42      0   0   0
    37    62      0   0   0
    37    68      0   0   0
    38     7      0   0   0
    38    13      0   0   0
    38    33      0   0   0
    38    37      0   0   0
    38    39      0   0   0
    38    43      0   0   0
    38    63      0   0   0
    38    69      0   0   0
    39     8      0   0   0
    39    14      0   0   0
    39    34      0   0   0
    39    38      0   0   0
    39    40      0   0   0
    39    44      0   0   0
    39    64      0   0   0
    39    70      0   0   0
    40     9      0   0   0
    40    15      0   0   0
    40    35      0   0   0
    40    39      0   0   0
    40    45      0   0   0
    40    65      0   0   0
    40    36      0   0   1
    40    66      0   0   1
    41    16      0   0   0
    41    36      0   0   0
    41    42      0   0   0
    41    46      0   0   0
    41    66      0   0   0
    41    72      0   0   0
    41    15      0   0  -1
    41    45      0   0  -1
    42    11      0   0   0
    42    17      0   0   0
    42    37      0   0   0
    42    41      0   0   0
    42    43      0   0   0
    42    47      0   0   0
    42    67      0   0   0
    42    73      0   0   0
    43    12      0   0   0
    43    18      0   0   0
    43    38      0   0   0
    43    42      0   0   0
    43    44      0   0   0
    43    48      0   0   0
    43    68      0   0   0
    43    74      0   0   0
    44    13      0   0   0
    44    19      0   0   0
    44    39      0   0   0
    44    43      0   0   0
    44    45      0   0   0
    44    49      0   0   0
    44    69      0   0   0
    44    75      0   0   0
    45    14      0   0   0
    45    20      0   0   0
    45    40      0   0   0
    45    44      0   0   0
    45    50      0   0   0
    45    70      0   0   0
    45    41      0   0   1
    45    71      0   0   1
    46    21      0   0   0
    46    41      0   0   0
    46    47      0   0   0
    46    71      0   0   0
    46    26      0   1   0
    46    52      0   1   0
    46    20      0   0  -1
    46    50      0   0  -1
    47    16      0   0   0
    47    22      0   0   0
    47    42      0   0   0
    47    46      0   0   0
    47    48      0   0   0
    47    72      0   0   0
    47    27      0   1   0
    47    53      0   1   0
    48    17      0   0   0
    48    23      0   0   0
    48    43      0   0   0
    48    47      0   0   0
    48    49      0   0   0
    48    73      0   0   0
    48    28      0   1   0
    48    54      0   1   0
    49    18      0   0   0
    49    24      0   0   0
    49    44      0   0   0
    49    48      0   0   0
    49    50      0   0   0
    49    74      0   0   0
    49    29      0   1   0
    49    55      0   1   0
    50    19      0   0   0
    50    25      0   0   0
    50    45      0   0   0
    50    49      0   0   0
    50    75      0   0   0
    50    30      0   1   0
    50    46      0   0   1
    50    51      0   1   1
    51    26      0   0   0
    51    52      0   0   0
    51    56      0   0   0
    51    76      0   0   0
    51    82      0   0   0
    51    55      0   0  -1
    51    71      0  -1   0
    51    50      0  -1  -1
    52    27      0   0   0
    52    51      0   0   0
    52    53      0   0   0
    52    57      0   0   0
    52    77      0   0   0
    52    83      0   0   0
    52    46      0  -1   0
    52    72      0  -1   0
    53    28      0   0   0
    53    52      0   0   0
    53    54      0   0   0
    53    58      0   0   0
    53    78      0   0   0
    53    84      0   0   0
    53    47      0  -1   0
    53    73      0  -1   0
    54    29      0   0   0
    54    53      0   0   0
    54    55      0   0   0
    54    59      0   0   0
    54    79      0   0   0
    54    85      0   0   0
    54    48      0  -1   0
    54    74      0  -1   0
    55    30      0   0   0
    55    54      0   0   0
    55    60      0   0   0
    55    80      0   0   0
    55    51      0   0   1
    55    81      0   0   1
    55    49      0  -1   0
    55    75      0  -1   0
    56    31      0   0   0
    56    51      0   0   0
    56    57      0   0   0
    56    61      0   0   0
    56    81      0   0   0
    56    87      0   0   0
    56    30      0   0  -1
    56    60      0   0  -1
    57    26      0   0   0
    57    32      0   0   0
    57    52      0   0   0
    57    56      0   0   0
    57    58      0   0   0
    57    62      0   0   0
    57    82      0   0   0
    57    88      0   0   0
    58    27      0   0   0
    58    33      0   0   0
    58    53      0   0   0
    58    57      0   0   0
    58    59      0   0   0
    58    63      0   0   0
    58    83      0   0   0
    58    89      0   0   0
    59    28      0   0   0
    59    34      0   0   0
    59    54      0   0   0
    59    58      0   0   0
    59    60      0   0   0
    59    64      0   0   0
    59    84      0   0   0
    59    90      0   0   0
    60    29      0   0   0
    60    35      0   0   0
    60    55      0   0   0
    60    59      0   0   0
    60    65      0   0   0
    60    85      0   0   0
    60    56      0   0   1
    60    86      0   0   1
    61    36      0   0   0
    61    56      0   0   0
    61    62      0   0   0
    61    66      0   0   0
    61    86      0   0   0
    61    92      0   0   0
    61    35      0   0  -1
    61    65      0   0  -1
    62    31      0   0   0
    62    37      0   0   0
    62    57      0   0   0
    62    61      0   0   0
    62    63      0   0   0
    62    67      0   0   0
    62    87      0   0   0
    62    93      0   0   0
    63    32      0   0   0
    63    38      0   0   0
    63    58      0   0   0
    63    62      0   0   0
    63    64      0   0   0
    63    68      0   0   0
    63    88      0   0   0
    63    94      0   0   0
    64    33      0   0   0
    64    39      0   0   0
    64    59      0   0   0
    64    63      0   0   0
    64    65      0   0   0
    64    69      0   0   0
    64    89      0   0   0
    64    95      0   0   0
    65    34      0   0   0
    65    40      0   0   0
    65    60      0   0   0
    65    64      0   0   0
    65    70      0   0   0
    65    90      0   0   0
    65    61      0   0   1
    65    91      0   0   1
    66    41      0   0   0
    66    61      0   0   0
    66    67      0   0   0
    66    71      0   0   0
    66    91      0   0   0
    66    97      0   0   0
    66    40      0   0  -1
    66    70      0   0  -1
    67    36      0   0   0
    67    42      0   0   0
    67    62      0   0   0
    67    66      0   0   0
    67    68      0   0   0
    67    72      0   0   0
    67    92      0   0   0
    67    98      0   0   0
    68    37      0   0   0
    68    43      0   0   0
    68    63      0   0   0
    68    67      0   0   0
    68    69      0   0   0
    68    73      0   0   0
    68    93      0   0   0
    68    99      0   0   0
    69    38      0   0   0
    69    44      0   0   0
    69    64      0   0   0
    69    68      0   0   0
    69    70      0   0   0
    69    74      0   0   0
    69    94      0   0   0
    69   100      0   0   0
    70    39      0   0   0
    70    45      0   0   0
    70    65      0   0   0
    70    69      0   0   0
    70    75      0   0   0
    70    95      0   0   0
    70    66      0   0   1
    70    96      0   0   1
    71    46      0   0   0
    71    66      0   0   0
    71    72      0   0   0
    71    96      0   0   0
    71    51      0   1   0
    71    77      0   1   0
    71    45      0   0  -1
    71    75      0   0  -1
    72    41      0   0   0
    72    47      0   0   0
    72    67      0   0   0
    72    71      0   0   0
    72    73      0   0   0
    72    97      0   0   0
    72    52      0   1   0
    72    78      0   1   0
    73    42      0   0   0
    73    48      0   0   0
    73    68      0   0   0
    73    72      0   0   0
    73    74      0   0   0
    73    98      0   0   0
    73    53      0   1   0
    73    79      0   1   0
    74    43      0   0   0
    74    49      0   0   0
    74    69      0   0   0
    74    73      0   0   0
    74    75      0   0   0
    74    99      0   0   0
    74    54      0   1   0
    74    80      0   1   0
    75    44      0   0   0
    75    50      0   0   0
    75    70      0   0   0
    75    74      0   0   0
    75   100      0   0   0
    75    55      0   1   0
    75    71      0   0   1
    75    76      0   1   1
    76    51      0   0   0
    76    77      0   0   0
    76    81      0   0   0
    76   101      0   0   0
    76   107      0   0   0
    76    80      0   0  -1
    76    96      0  -1   0
    76    75      0  -1  -1
    77    52      0   0   0
    77    76      0   0   0
    77    78      0   0   0
    77    82      0   0   0
    77   102      0   0   0
    77   108      0   0   0
    77    71      0  -1   0
    77    97      0  -1   0
    78    53      0   0   0
    78    77      0   0   0
    78    79      0   0   0
    78    83      0   0   0
    78   103      0   0   0
    78   109      0   0   0
    78    72      0  -1   0
    78    98      0  -1   0
    79    54      0   0   0
    79    78      0   0   0
    79    80      0   0   0
    79    84      0   0   0
    79   104      0   0   0
    79   110      0   0   0
    79    73      0  -1   0
    79    99      0  -1   0
    80    55      0   0   0
    80    79      0   0   0
    80    85      0   0   0
    80   105      0   0   0
    80    76      0   0   1
    80   106      0   0   1
    80    74      0  -1   0
    80   100      0  -1   0
    81    56      0   0   0
    81    76      0   0   0
    81    82      0   0   0
    81    86      0   0   0
    81   106      0   0   0
    81   112      0   0   0
    81    55      0   0  -1
    81    85      0   0  -1
    82    51      0   0   0
    82    57      0   0   0
    82    77      0   0   0
    82    81      0   0   0
    82    83      0   0   0
    82    87      0   0   0
    82   107      0   0   0
    82   113      0   0   0
    83    52      0   0   0
    83    58      0   0   0
    83    78      0   0   0
    83    82      0   0   0
    83    84      0   0   0
    83    88      0   0   0
    83   108      0   0   0
    83   114      0   0   0
    84    53      0   0   0
    84    59      0   0   0
    84    79      0   0   0
    84    83      0   0   0
    84    85      0   0   0
    84    89      0   0   0
    84   109      0   0   0
    84   115      0   0   0
    85    54      0   0   0
    85    60      0   0   0
    85    80      0   0   0
    85    84      0   0   0
    85    90      0   0   0
    85   110      0   0   0
    85    81      0   0   1
    85   111      0   0   1
    86    61      0   0   0
    86    81      0   0   0
    86    87      0   0   0
    86    91      0   0   0
    86   111      0   0   0
    86   117      0   0   0
    86    60      0   0  -1
    86    90      0   0  -1
    87    56      0   0   0
    87    62      0   0   0
    87    82      0   0   0
    87    86      0   0   0
    87    88      0   0   0
    87    92      0   0   0
    87   112      0   0   0
    87   118      0   0   0
    88    57      0   0   0
    88    63      0   0   0
    88    83      0   0   0
    88    87      0   0   0
    88    89      0   0   0
    88    93      0   0   0
    88   113      0   0   0
    88   119      0   0   0
    89    58      0   0   0
    89    64      0   0   0
    89    84      0   0   0
    89    88      0   0   0
    89    90      0   0   0
    89    94      0   0   0
    89   114      0   0   0
    89   120      0   0   0
    90    59      0   0   0
    90    65      0   0   0
    90    85      0   0   0
    90    89      0   0   0
    90    95      0   0   0
    90   115      0   0   0
    90    86      0   0   1
    90   116      0   0   1
    91    66      0   0   0
    91    86      0   0   0
    91    92      0   0   0
    91    96      0   0   0
    91   116      0   0   0
    91   122      0   0   0
    91    65      0   0  -1
    91    95      0   0  -1
    92    61      0   0   0
    92    67      0   0   0
    92    87      0   0   0
    92    91      0   0   0
    92    93      0   0   0
    92    97      0   0   0
    92   117      0   0   0
    92   123      0   0   0
    93    62      0   0   0
    93    68      0   0   0
    93    88      0   0   0
    93    92      0   0   0
    93    94      0   0   0
    93    98      0   0   0
    93   118      0   0   0
    93   124      0   0   0
    94    63      0   0   0
    94    69      0   0   0
    94    89      0   0   0
    94    93      0   0   0
    94    95      0   0   0
    94    99      0   0   0
    94   119      0   0   0
    94   125      0   0   0
    95    64      0   0   0
    95    70      0   0   0
    95    90      0   0   0
    95    94      0   0   0
    95   100      0   0   0
    95   120      0   0   0
    95    91      0   0   1
    95   121      0   0   1
    96    71      0   0   0
    96    91      0   0   0
    96    97      0   0   0
    96   121      0   0   0
    96    76      0   1   0
    96   102      0   1   0
    96    70      0   0  -1
    96   100      0   0  -1
    97    66      0   0   0
    97    72      0   0   0
    97    92      0   0   0
    97    96      0   0   0
    97    98      0   0   0
    97   122      0   0   0
    97    77      0   1   0
    97   103      0   1   0
    98    67      0   0   0
    98    73      0   0   0
    98    93      0   0   0
    98    97      0   0   0
    98    99      0   0   0
    98   123      0   0   0
    98    78      0   1   0
    98   104      0   1   0
    99    68      0   0   0
    99    74      0   0   0
    99    94      0   0   0
    99    98      0   0   0
    99   100      0   0   0
    99   124      0   0   0
    99    79      0   1   0
    99   105      0   1   0
   100    69      0   0   0
   100    75      0   0   0
   100    95      0   0   0
   100    99      0   0   0
   100   125      0   0   0
   100    80      0   1   0
   100    96      0   0   1
   100   101      0   1   1
   101    76      0   0   0
   101   102      0   0   0
   101   106      0   0   0
   101     1      1   0   0
   101     7      1   0   0
   101   105      0   0  -1
   101   121      0  -1   0
   101   100      0  -1  -1
   102    77      0   0   0
   102   101      0   0   0
   102   103      0   0   0
   102   107      0   0   0
   102     2      1   0   0
   102     8      1   0   0
   102    96      0  -1   0
   102   122      0  -1   0
   103    78      0   0   0
   103   102      0   0   0
   103   104      0   0   0
   103   108      0   0   0
   103     3      1   0   0
   103     9      1   0   0
   103    97      0  -1   0
   103   123      0  -1   0
   104    79      0   0   0
   104   103      0   0   0
   104   105      0   0   0
   104   109      0   0   0
   104     4      1   0   0
   104    10      1   0   0
   104    98      0  -1   0
   104   124      0  -1   0
   105    80      0   0   0
   105   104      0   0   0
   105   110      0   0   0
   105     5      1   0   0
   105   101      0   0   1
   105    99      0  -1   0
   105   125      0  -1   0
   105     6      1   0   1
   106    81      0   0   0
   106   101      0   0   0
   106   107      0   0   0
   106   111      0   0   0
   106     6      1   0   0
   106    12      1   0   0
   106    80      0   0  -1
   106   110      0   0  -1
   107    76      0   0   0
   107    82      0   0   0
   107   102      0   0   0
   107   106      0   0   0
   107   108      0   0   0
   107   112      0   0   0
   107     7      1   0   0
   107    13      1   0   0
   108    77      0   0   0
   108    83      0   0   0
   108   103      0   0   0
   108   107      0   0   0
   108   109      0   0   0
   108   113      0   0   0
   108     8      1   0   0
   108    14      1   0   0
   109    78      0   0   0
   109    84      0   0   0
   109   104      0   0   0
   109   108      0   0   0
   109   110      0   0   0
   109   114      0   0   0
   109     9      1   0   0
   109    15      1   0   0
   110    79      0   0   0
   110    85      0   0   0
   110   105      0   0   0
   110   109      0   0   0
   110   115      0   0   0
   110    10      1   0   0
   110   106      0   0   1
   110    11      1   0   1
   111    86      0   0   0
   111   106      0   0   0
   111   112      0   0   0
   111   116      0   0   0
   111    11      1   0   0
   111    17      1   0   0
   111    85      0   0  -1
   111   115      0   0  -1
   112    81      0   0   0
   112    87      0   0   0
   112   107      0   0   0
   112   111      0   0   0
   112   113      0   0   0
   112   117      0   0   0
   112    12      1   0   0
   112    18      1   0   0
   113    82      0   0   0
   113    88      0   0   0
   113   108      0   0   0
   113   112      0   0   0
   113   114      0   0   0
   113   118      0   0   0
   113    13      1   0   0
   113    19      1   0   0
   114    83      0   0   0
   114    89      0   0   0
   114   109      0   0   0
   114   113      0   0   0
   114   115      0   0   0
   114   119      0   0   0
   114    14      1   0   0
   114    20      1   0   0
   115    84      0   0   0
   115    90      0   0   0
   115   110      0   0   0
   115   114      0   0   0
   115   120      0   0   0
   115    15      1   0   0
   115   111      0   0   1
   115    16      1   0   1
   116    91      0   0   0
   116   111      0   0   0
   116   117      0   0   0
   116   121      0   0   0
   116    16      1   0   0
   116    22      1   0   0
   116    90      0   0  -1
   116   120      0   0  -1
   117    86      0   0   0
   117    92      0   0   0
   117   112      0   0   0
   117   116      0   0   0
   117   118      0   0   0
   117   122      0   0   0
   117    17      1   0   0
   117    23      1   0   0
   118    87      0   0   0
   118    93      0   0   0
   118   113      0   0   0
   118   117      0   0   0
   118   119      0   0   0
   118   123      0   0   0
   118    18      1   0   0
   118    24      1   0   0
   119    88      0   0   0
   119    94      0   0   0
   119   114      0   0   0
   119   118      0   0   0
   119   120      0   0   0
   119   124      0   0   0
   119    19      1   0   0
   119    25      1   0   0
   120    89      0   0   0
   120    95      0   0   0
   120   115      0   0   0
   120   119      0   0   0
   120   125      0   0   0
   120    20      1   0   0
   120   116      0   0   1
   120    21      1   0   1
   121    96      0   0   0
   121   116      0   0   0
   121   122      0   0   0
   121    21      1   0   0
   121   101      0   1   0
   121    95      0   0  -1
   121   125      0   0  -1
   121     2      1   1   0
   122    91      0   0   0
   122    97      0   0   0
   122   117      0   0   0
   122   121      0   0   0
   122   123      0   0   0
   122    22      1   0   0
   122   102      0   1   0
   122     3      1   1   0
   123    92      0   0   0
   123    98      0   0   0
   123   118      0   0   0
   123   122      0   0   0
   123   124      0   0   0
   123    23      1   0   0
   123   103      0   1   0
   123     4      1   1   0
   124    93      0   0   0
   124    99      0   0   0
   124   119      0   0   0
   124   123      0   0   0
   124   125      0   0   0
   124    24      1   0   0
   124   104      0   1   0
   124     5      1   1   0
   125    94      0   0   0
   125   100      0   0   0
   125   120      0   0   0
   125   124      0   0   0
   125     1      1   1   1
   125    25      1   0   0
   125   105      0   1   0
   125   121      0   0   1
end nnkpts

begin exclude_bands
   0
end exclude_bands
