
             +---------------------------------------------------+
             |                                                   |
             |                   WANNIER90                       |
             |                                                   |
             +---------------------------------------------------+
             |                                                   |
             |        Welcome to the Maximally-Localized         |
             |        Generalized Wannier Functions code         |
             |            http://www.wannier.org                 |
             |                                                   |
             |  Wannier90 Authors:                               |
             |    Arash A. Mostofi   (Imperial College London)   |
             |    Jonathan R. Yates  (University of Oxford)      |
             |    Young-Su Lee       (KIST, S. Korea)            |
             |                                                   |
             |  Wannier90 Contributors:                          |
             |    Matthew Shelley    (Imperial College London)   |
             |    Nicolas Poilvert   (MIT)                       |
             |                                                   |
             |  Wannier77 Authors:                               |
             |    Nicola Marzari     (University of Oxford)      |
             |    Ivo Souza          (UC Berkeley)               |
             |    David Vanderbilt   (Rutgers University)        |
             |                                                   |
             |  Please cite                                      |
             |                                                   |
             |  [ref] "Wannier90: A Tool for Obtaining Maximally |
             |         Localised Wannier Functions"              |
             |        A. A. Mostofi, J. R. Yates, Y.-S. Lee,     |
             |        I. Souza, D. Vanderbilt and N. Marzari     |
             |        Comput. Phys. Commun. 178, 685 (2008)      |
             |                                                   |
             |  in any publications arising from the use of      |
             |  this code. For the method please cite            |
             |                                                   |
             |  [ref] "Maximally Localized Generalised Wannier   |
             |         Functions for Composite Energy Bands"     |
             |         N. Marzari and D. Vanderbilt              |
             |         Phys. Rev. B 56 12847 (1997)              |
             |                                                   |
             |  [ref] "Maximally Localized Wannier Functions     |
             |         for Entangled Energy Bands"               |
             |         I. Souza, N. Marzari and D. Vanderbilt    |
             |         Phys. Rev. B 65 035109 (2001)             |
             |                                                   |
             |                                                   |
             | Copyright (c) 1996-2010                           |
             |        A. A. Mostofi, J. R. Yates, Y.-S. Lee,     |
             |        I. Souza, D. Vanderbilt and N. Marzari     |
             |                                                   |
             |        Release: 1.2        24th Jan 2010          |
             |                                                   |
             | This program is free software; you can            |
             | redistribute it and/or modify it under the terms  |
             | of the GNU General Public License as published by |
             | the Free Software Foundation; either version 2 of |
             | the License, or (at your option) any later version|
             |                                                   |
             | This program is distributed in the hope that it   |
             | will be useful, but WITHOUT ANY WARRANTY; without |
             | even the implied warranty of MERCHANTABILITY or   |
             | FITNESS FOR A PARTICULAR PURPOSE. See the GNU     |
             | General Public License for more details.          |
             |                                                   |
             | You should have received a copy of the GNU General|
             | Public License along with this program; if not,   |
             | write to the Free Software Foundation, Inc.,      |
             | 675 Mass Ave, Cambridge, MA 02139, USA.           |
             |                                                   |
             +---------------------------------------------------+
             |    Execution started on 27Sep2012 at 16:19:39     |
             +---------------------------------------------------+

                                    ------
                                    SYSTEM
                                    ------

                              Lattice Vectors (Ang)
                    a_1     0.000000   2.714997   2.714997
                    a_2     2.714997   0.000000   2.714997
                    a_3     2.714997   2.714997   0.000000

                   Unit Cell Volume:      40.02560  (Ang^3)

                        Reciprocal-Space Vectors (Ang^-1)
                    b_1    -1.157126   1.157126   1.157126
                    b_2     1.157126  -1.157126   1.157126
                    b_3     1.157126   1.157126  -1.157126
  
 *----------------------------------------------------------------------------*
 |   Site       Fractional Coordinate          Cartesian Coordinate (Ang)     |
 +----------------------------------------------------------------------------+
 | Si   1  -0.12500  -0.12500  -0.12500   |   -0.67875  -0.67875  -0.67875    |
 | Si   2   0.12500   0.12500   0.12500   |    0.67875   0.67875   0.67875    |
 *----------------------------------------------------------------------------*
  
                                ------------
                                K-POINT GRID
                                ------------
  
             Grid size =  5 x  5 x  5      Total points =  125
  
  
 *---------------------------------- MAIN ------------------------------------*
 |  Number of Wannier Functions               :                 8             |
 |  Number of input Bloch states              :                12             |
 |  Output verbosity (1=low, 5=high)          :                 1             |
 |  Timing Level (1=low, 5=high)              :                 1             |
 |  Optimisation (0=memory, 3=speed)          :                 3             |
 |  Length Unit                               :               Ang             |
 |  Post-processing setup (write *.nnkp)      :                 F             |
 |  Using Gamma-only branch of algorithms     :                 F             |
 *----------------------------------------------------------------------------*
 *------------------------------- WANNIERISE ---------------------------------*
 |  Total number of iterations                :               100             |
 |  Number of CG steps before reset           :                 5             |
 |  Trial step length for line search         :             2.000             |
 |  Convergence tolerence                     :         0.100E-09             |
 |  Convergence window                        :                -1             |
 |  Iterations between writing output         :                 1             |
 |  Iterations between backing up to disk     :               100             |
 |  Write r^2_nm to file                      :                 F             |
 |  Write xyz WF centres to file              :                 F             |
 |  Use guiding centre to control phases      :                 F             |
 *----------------------------------------------------------------------------*
 *------------------------------- DISENTANGLE --------------------------------*
 |  Using band disentanglement                :                 T             |
 |  Total number of iterations                :               200             |
 |  Mixing ratio                              :             0.500             |
 |  Convergence tolerence                     :         1.000E-10             |
 |  Convergence window                        :                 3             |
 *----------------------------------------------------------------------------*
 *-------------------------------- PLOTTING ----------------------------------*
 |  Plotting interpolated bandstructure       :                 T             |
 |   Number of K-path sections                :                 4             |
 |   Divisions along first K-path section     :               100             |
 |   Output format                            :           gnuplot             |
 |   Output mode                              :               s-k             |
 *----------------------------------------------------------------------------*
 |   K-space path sections:                                                   |
 |    From:  L    0.500  0.500  0.500     To:  G    0.000  0.000  0.000       |
 |    From:  G    0.000  0.000  0.000     To:  X    0.500  0.000  0.500       |
 |    From:  X    0.500 -0.500  0.000     To:  K    0.375 -0.375  0.000       |
 |    From:  K    0.375 -0.375  0.000     To:  G    0.000  0.000  0.000       |
 *----------------------------------------------------------------------------*
 Time to read parameters        0.010 (sec)

 *---------------------------------- K-MESH ----------------------------------*
 +----------------------------------------------------------------------------+
 |                    Distance to Nearest-Neighbour Shells                    |
 |                    ------------------------------------                    |
 |          Shell             Distance (Ang^-1)          Multiplicity         |
 |          -----             -----------------          ------------         |
 |             1                   0.400840                      8            |
 |             2                   0.462850                      6            |
 |             3                   0.654569                     12            |
 |             4                   0.767550                     24            |
 |             5                   0.801680                      8            |
 |             6                   0.925701                      6            |
 |             7                   1.008759                     24            |
 |             8                   1.034965                     24            |
 |             9                   1.133747                     24            |
 |            10                   1.202520                     32            |
 |            11                   1.309138                     12            |
 |            12                   1.369130                     48            |
 +----------------------------------------------------------------------------+
 | The b-vectors are chosen automatically                                     |
 | The following shells are used:   1                                         |
 +----------------------------------------------------------------------------+
 |                        Shell   # Nearest-Neighbours                        |
 |                        -----   --------------------                        |
 |                          1               8                                 |
 +----------------------------------------------------------------------------+
 | Completeness relation is fully satisfied [Eq. (B1), PRB 56, 12847 (1997)]  |
 +----------------------------------------------------------------------------+
 |                  b_k Vectors (Ang^-1) and Weights (Ang^2)                  |
 |                  ----------------------------------------                  |
 |            No.         b_k(x)      b_k(y)      b_k(z)        w_b           |
 |            ---        --------------------------------     --------        |
 |             1         0.231425    0.231425   -0.231425     2.333936        |
 |             2         0.231425   -0.231425    0.231425     2.333936        |
 |             3        -0.231425    0.231425    0.231425     2.333936        |
 |             4         0.231425    0.231425    0.231425     2.333936        |
 |             5        -0.231425   -0.231425    0.231425     2.333936        |
 |             6        -0.231425    0.231425   -0.231425     2.333936        |
 |             7         0.231425   -0.231425   -0.231425     2.333936        |
 |             8        -0.231425   -0.231425   -0.231425     2.333936        |
 +----------------------------------------------------------------------------+
 |                           b_k Directions (Ang^-1)                          |
 |                           -----------------------                          |
 |            No.           x           y           z                         |
 |            ---        --------------------------------                     |
 |             1         0.231425    0.231425   -0.231425                     |
 |             2         0.231425   -0.231425    0.231425                     |
 |             3        -0.231425    0.231425    0.231425                     |
 |             4         0.231425    0.231425    0.231425                     |
 +----------------------------------------------------------------------------+
  
 *============================================================================*
 |                              MEMORY ESTIMATE                               |
 |         Maximum RAM allocated during each phase of the calculation         |
 *============================================================================*
 |                        Disentanglement            3.75 Mb                  |
 |                            Wannierise:            3.00 Mb                  |
 *----------------------------------------------------------------------------*
  
 Starting a new Wannier90 calculation ...

 Time to get kmesh              0.460 (sec)

 Reading overlaps from silicon.mmn    :  Created on 27Sep2012 at 16: 2:46

 Reading projections from silicon.amn :  Created on 27Sep2012 at 16: 1:59

 Time to read overlaps          0.480 (sec)

 *------------------------------- DISENTANGLE --------------------------------*
 +----------------------------------------------------------------------------+
 |                              Energy  Windows                               |
 |                              ---------------                               |
 |                   Outer:   -5.89576  to   20.39458  (eV)                   |
 |                   Inner:   -5.89576  to   12.10000  (eV)                   |
 +----------------------------------------------------------------------------+
   Number of target bands to extract:    8

                   Unitarised projection of Wannier functions                  
                   ------------------------------------------                  
   A_mn = <psi_m|g_n> --> S = A.A^+ --> U = S^-1/2.A
   In dis_project... done
   Using an inner window (linner = T)
   In dis_proj_froz... done

                   Extraction of optimally-connected subspace                  
                   ------------------------------------------                  
 +---------------------------------------------------------------------+<-- DIS
 |  Iter     Omega_I(i-1)      Omega_I(i)      Delta (frac.)    Time   |<-- DIS
 +---------------------------------------------------------------------+<-- DIS
       1      16.22266958      15.96177510       1.634E-02      1.03    <-- DIS
       2      15.97015788      15.90020166       4.400E-03      1.06    <-- DIS
       3      15.93554522      15.87561902       3.775E-03      1.09    <-- DIS
       4      15.90537555      15.86287996       2.679E-03      1.12    <-- DIS
       5      15.88500004      15.85621165       1.816E-03      1.15    <-- DIS
       6      15.87176744      15.85271346       1.202E-03      1.18    <-- DIS
       7      15.86335203      15.85087735       7.870E-04      1.21    <-- DIS
       8      15.85805976      15.84991322       5.140E-04      1.24    <-- DIS
       9      15.85474460      15.84940661       3.368E-04      1.27    <-- DIS
      10      15.85266418      15.84914016       2.223E-04      1.30    <-- DIS
      11      15.85135021      15.84899984       1.483E-04      1.33    <-- DIS
      12      15.85051195      15.84892583       1.001E-04      1.36    <-- DIS
      13      15.84997034      15.84888672       6.837E-05      1.40    <-- DIS
      14      15.84961530      15.84886602       4.728E-05      1.43    <-- DIS
      15      15.84937900      15.84885504       3.306E-05      1.46    <-- DIS
      16      15.84921932      15.84884920       2.335E-05      1.49    <-- DIS
      17      15.84910986      15.84884609       1.664E-05      1.52    <-- DIS
      18      15.84903383      15.84884443       1.195E-05      1.55    <-- DIS
      19      15.84898040      15.84884354       8.635E-06      1.58    <-- DIS
      20      15.84894247      15.84884306       6.273E-06      1.61    <-- DIS
      21      15.84891533      15.84884280       4.576E-06      1.64    <-- DIS
      22      15.84889576      15.84884266       3.350E-06      1.67    <-- DIS
      23      15.84888157      15.84884259       2.460E-06      1.70    <-- DIS
      24      15.84887124      15.84884255       1.811E-06      1.73    <-- DIS
      25      15.84886369      15.84884252       1.335E-06      1.76    <-- DIS
      26      15.84885815      15.84884251       9.864E-07      1.79    <-- DIS
      27      15.84885407      15.84884251       7.297E-07      1.82    <-- DIS
      28      15.84885107      15.84884250       5.405E-07      1.86    <-- DIS
      29      15.84884885      15.84884250       4.008E-07      1.89    <-- DIS
      30      15.84884721      15.84884250       2.975E-07      1.92    <-- DIS
      31      15.84884600      15.84884250       2.210E-07      1.95    <-- DIS
      32      15.84884510      15.84884250       1.643E-07      1.98    <-- DIS
      33      15.84884443      15.84884250       1.222E-07      2.01    <-- DIS
      34      15.84884394      15.84884250       9.100E-08      2.04    <-- DIS
      35      15.84884357      15.84884250       6.779E-08      2.07    <-- DIS
      36      15.84884330      15.84884250       5.053E-08      2.10    <-- DIS
      37      15.84884309      15.84884250       3.768E-08      2.13    <-- DIS
      38      15.84884294      15.84884250       2.812E-08      2.16    <-- DIS
      39      15.84884283      15.84884250       2.099E-08      2.19    <-- DIS
      40      15.84884275      15.84884250       1.568E-08      2.22    <-- DIS
      41      15.84884268      15.84884250       1.172E-08      2.25    <-- DIS
      42      15.84884264      15.84884250       8.762E-09      2.28    <-- DIS
      43      15.84884260      15.84884250       6.554E-09      2.32    <-- DIS
      44      15.84884258      15.84884250       4.904E-09      2.35    <-- DIS
      45      15.84884256      15.84884250       3.671E-09      2.38    <-- DIS
      46      15.84884254      15.84884250       2.749E-09      2.41    <-- DIS
      47      15.84884253      15.84884250       2.060E-09      2.44    <-- DIS
      48      15.84884252      15.84884250       1.544E-09      2.47    <-- DIS
      49      15.84884252      15.84884250       1.157E-09      2.50    <-- DIS
      50      15.84884251      15.84884250       8.678E-10      2.53    <-- DIS
      51      15.84884251      15.84884250       6.510E-10      2.56    <-- DIS
      52      15.84884251      15.84884250       4.885E-10      2.60    <-- DIS
      53      15.84884250      15.84884250       3.667E-10      2.63    <-- DIS
      54      15.84884250      15.84884250       2.753E-10      2.66    <-- DIS
      55      15.84884250      15.84884250       2.068E-10      2.69    <-- DIS
      56      15.84884250      15.84884250       1.553E-10      2.72    <-- DIS
      57      15.84884250      15.84884250       1.167E-10      2.74    <-- DIS
      58      15.84884250      15.84884250       8.773E-11      2.77    <-- DIS
      59      15.84884250      15.84884250       6.595E-11      2.80    <-- DIS
      60      15.84884250      15.84884250       4.959E-11      2.83    <-- DIS

             <<<      Delta < 1.000E-10  over  3 iterations     >>>
             <<< Disentanglement convergence criteria satisfied >>>

        Final Omega_I    15.84884250 (Ang^2)

 +----------------------------------------------------------------------------+

 Time to disentangle bands      1.930 (sec)

 Writing checkpoint file silicon.chk... done


 *------------------------------- WANNIERISE ---------------------------------*
 +--------------------------------------------------------------------+<-- CONV
 | Iter  Delta Spread     RMS Gradient      Spread (Ang^2)      Time  |<-- CONV
 +--------------------------------------------------------------------+<-- CONV

 ------------------------------------------------------------------------------
 Initial State
  WF centre and spread    1  ( -0.437962, -0.437962, -0.437962 )     3.11288346
  WF centre and spread    2  ( -0.437962, -0.919536, -0.919536 )     3.11288348
  WF centre and spread    3  ( -0.919536, -0.437962, -0.919536 )     3.11288342
  WF centre and spread    4  ( -0.919536, -0.919536, -0.437962 )     3.11288347
  WF centre and spread    5  (  1.105834,  1.105834,  1.105834 )     2.82202219
  WF centre and spread    6  (  1.105834,  0.251664,  0.251664 )     2.82202251
  WF centre and spread    7  (  0.251664,  1.105834,  0.251664 )     2.82202220
  WF centre and spread    8  (  0.251664,  0.251664,  1.105834 )     2.82202247
  Sum of centres and spreads ( -0.000000,  0.000001,  0.000000 )    23.73962319

      0     0.237E+02     0.0000000000       23.7396231930       2.90  <-- CONV
        O_D=      0.2945651 O_OD=      7.5962156 O_TOT=     23.7396232 <-- SPRD
 ------------------------------------------------------------------------------
 Cycle:      1
  WF centre and spread    1  ( -0.443333, -0.443333, -0.443333 )     3.07133284
  WF centre and spread    2  ( -0.443333, -0.914165, -0.914165 )     3.07133287
  WF centre and spread    3  ( -0.914165, -0.443333, -0.914165 )     3.07133280
  WF centre and spread    4  ( -0.914165, -0.914165, -0.443333 )     3.07133286
  WF centre and spread    5  (  1.120676,  1.120676,  1.120676 )     2.74377976
  WF centre and spread    6  (  1.120676,  0.236823,  0.236822 )     2.74378011
  WF centre and spread    7  (  0.236822,  1.120676,  0.236823 )     2.74377977
  WF centre and spread    8  (  0.236822,  0.236823,  1.120676 )     2.74378009
  Sum of centres and spreads ( -0.000000,  0.000001,  0.000000 )    23.26045109

      1    -0.479E+00     0.5361907710       23.2604510897       2.97  <-- CONV
        O_D=      0.2976186 O_OD=      7.1139900 O_TOT=     23.2604511 <-- SPRD
 Delta: O_D=  0.3053540E-02 O_OD= -0.4822256E+00 O_TOT= -0.4791721E+00 <-- DLTA
 ------------------------------------------------------------------------------
 Cycle:      2
  WF centre and spread    1  ( -0.448032, -0.448032, -0.448032 )     3.06054282
  WF centre and spread    2  ( -0.448032, -0.909466, -0.909466 )     3.06054290
  WF centre and spread    3  ( -0.909467, -0.448032, -0.909467 )     3.06054277
  WF centre and spread    4  ( -0.909466, -0.909466, -0.448032 )     3.06054289
  WF centre and spread    5  (  1.131551,  1.131551,  1.131551 )     2.69866417
  WF centre and spread    6  (  1.131551,  0.225948,  0.225948 )     2.69866455
  WF centre and spread    7  (  0.225948,  1.131551,  0.225948 )     2.69866417
  WF centre and spread    8  (  0.225948,  0.225948,  1.131551 )     2.69866453
  Sum of centres and spreads ( -0.000000,  0.000001,  0.000000 )    23.03682880

      2    -0.224E+00     0.3505728379       23.0368287971       3.04  <-- CONV
        O_D=      0.3309064 O_OD=      6.8570799 O_TOT=     23.0368288 <-- SPRD
 Delta: O_D=  0.3328781E-01 O_OD= -0.2569101E+00 O_TOT= -0.2236223E+00 <-- DLTA
 ------------------------------------------------------------------------------
 Cycle:      3
  WF centre and spread    1  ( -0.449060, -0.449060, -0.449060 )     3.05698807
  WF centre and spread    2  ( -0.449060, -0.908438, -0.908438 )     3.05698820
  WF centre and spread    3  ( -0.908438, -0.449060, -0.908438 )     3.05698802
  WF centre and spread    4  ( -0.908438, -0.908438, -0.449060 )     3.05698819
  WF centre and spread    5  (  1.135556,  1.135557,  1.135556 )     2.67631389
  WF centre and spread    6  (  1.135556,  0.221942,  0.221942 )     2.67631429
  WF centre and spread    7  (  0.221942,  1.135557,  0.221942 )     2.67631388
  WF centre and spread    8  (  0.221942,  0.221942,  1.135556 )     2.67631427
  Sum of centres and spreads ( -0.000000,  0.000001,  0.000000 )    22.93320881

      3    -0.104E+00     0.2949209705       22.9332088104       3.11  <-- CONV
        O_D=      0.3401277 O_OD=      6.7442386 O_TOT=     22.9332088 <-- SPRD
 Delta: O_D=  0.9221266E-02 O_OD= -0.1128413E+00 O_TOT= -0.1036200E+00 <-- DLTA
 ------------------------------------------------------------------------------
 Cycle:      4
  WF centre and spread    1  ( -0.448375, -0.448375, -0.448375 )     3.05501646
  WF centre and spread    2  ( -0.448375, -0.909123, -0.909123 )     3.05501663
  WF centre and spread    3  ( -0.909123, -0.448375, -0.909123 )     3.05501641
  WF centre and spread    4  ( -0.909123, -0.909123, -0.448375 )     3.05501663
  WF centre and spread    5  (  1.136161,  1.136161,  1.136161 )     2.67112633
  WF centre and spread    6  (  1.136161,  0.221338,  0.221338 )     2.67112673
  WF centre and spread    7  (  0.221338,  1.136161,  0.221338 )     2.67112632
  WF centre and spread    8  (  0.221338,  0.221338,  1.136161 )     2.67112671
  Sum of centres and spreads ( -0.000000,  0.000001,  0.000000 )    22.90457221

      4    -0.286E-01     0.1754279804       22.9045722058       3.17  <-- CONV
        O_D=      0.3414499 O_OD=      6.7142798 O_TOT=     22.9045722 <-- SPRD
 Delta: O_D=  0.1322219E-02 O_OD= -0.2995882E-01 O_TOT= -0.2863660E-01 <-- DLTA
 ------------------------------------------------------------------------------
 Cycle:      5
  WF centre and spread    1  ( -0.447768, -0.447768, -0.447768 )     3.05394687
  WF centre and spread    2  ( -0.447768, -0.909730, -0.909730 )     3.05394707
  WF centre and spread    3  ( -0.909730, -0.447768, -0.909730 )     3.05394681
  WF centre and spread    4  ( -0.909730, -0.909730, -0.447768 )     3.05394707
  WF centre and spread    5  (  1.136317,  1.136318,  1.136317 )     2.67036437
  WF centre and spread    6  (  1.136317,  0.221181,  0.221181 )     2.67036478
  WF centre and spread    7  (  0.221181,  1.136318,  0.221181 )     2.67036436
  WF centre and spread    8  (  0.221181,  0.221181,  1.136317 )     2.67036476
  Sum of centres and spreads ( -0.000000,  0.000001,  0.000000 )    22.89724608

      5    -0.733E-02     0.0873739726       22.8972460840       3.24  <-- CONV
        O_D=      0.3416901 O_OD=      6.7067135 O_TOT=     22.8972461 <-- SPRD
 Delta: O_D=  0.2401383E-03 O_OD= -0.7566260E-02 O_TOT= -0.7326122E-02 <-- DLTA
 ------------------------------------------------------------------------------
 Cycle:      6
  WF centre and spread    1  ( -0.447523, -0.447522, -0.447522 )     3.05394126
  WF centre and spread    2  ( -0.447523, -0.909976, -0.909976 )     3.05394150
  WF centre and spread    3  ( -0.909976, -0.447522, -0.909976 )     3.05394120
  WF centre and spread    4  ( -0.909976, -0.909976, -0.447523 )     3.05394150
  WF centre and spread    5  (  1.136407,  1.136407,  1.136407 )     2.66991891
  WF centre and spread    6  (  1.136407,  0.221092,  0.221092 )     2.66991932
  WF centre and spread    7  (  0.221092,  1.136407,  0.221092 )     2.66991890
  WF centre and spread    8  (  0.221092,  0.221092,  1.136407 )     2.66991930
  Sum of centres and spreads ( -0.000000,  0.000001,  0.000000 )    22.89544191

      6    -0.180E-02     0.0424713213       22.8954419073       3.31  <-- CONV
        O_D=      0.3415884 O_OD=      6.7050110 O_TOT=     22.8954419 <-- SPRD
 Delta: O_D= -0.1016243E-03 O_OD= -0.1702552E-02 O_TOT= -0.1804177E-02 <-- DLTA
 ------------------------------------------------------------------------------
 Cycle:      7
  WF centre and spread    1  ( -0.447576, -0.447576, -0.447576 )     3.05463735
  WF centre and spread    2  ( -0.447577, -0.909922, -0.909922 )     3.05463761
  WF centre and spread    3  ( -0.909922, -0.447576, -0.909922 )     3.05463729
  WF centre and spread    4  ( -0.909922, -0.909922, -0.447577 )     3.05463761
  WF centre and spread    5  (  1.136424,  1.136424,  1.136424 )     2.66911294
  WF centre and spread    6  (  1.136424,  0.221074,  0.221074 )     2.66911335
  WF centre and spread    7  (  0.221074,  1.136424,  0.221074 )     2.66911293
  WF centre and spread    8  (  0.221074,  0.221074,  1.136424 )     2.66911333
  Sum of centres and spreads ( -0.000000,  0.000001,  0.000000 )    22.89500240

      7    -0.440E-03     0.0218172772       22.8950023972       3.38  <-- CONV
        O_D=      0.3414458 O_OD=      6.7047141 O_TOT=     22.8950024 <-- SPRD
 Delta: O_D= -0.1426650E-03 O_OD= -0.2968450E-03 O_TOT= -0.4395100E-03 <-- DLTA
 ------------------------------------------------------------------------------
 Cycle:      8
  WF centre and spread    1  ( -0.447634, -0.447634, -0.447634 )     3.05628257
  WF centre and spread    2  ( -0.447634, -0.909864, -0.909864 )     3.05628286
  WF centre and spread    3  ( -0.909864, -0.447634, -0.909864 )     3.05628250
  WF centre and spread    4  ( -0.909864, -0.909864, -0.447634 )     3.05628286
  WF centre and spread    5  (  1.136459,  1.136459,  1.136459 )     2.66740116
  WF centre and spread    6  (  1.136459,  0.221040,  0.221040 )     2.66740157
  WF centre and spread    7  (  0.221040,  1.136459,  0.221040 )     2.66740115
  WF centre and spread    8  (  0.221040,  0.221040,  1.136459 )     2.66740156
  Sum of centres and spreads ( -0.000000,  0.000001,  0.000000 )    22.89473624

      8    -0.266E-03     0.0136202413       22.8947362446       3.45  <-- CONV
        O_D=      0.3412560 O_OD=      6.7046378 O_TOT=     22.8947362 <-- SPRD
 Delta: O_D= -0.1898020E-03 O_OD= -0.7635058E-04 O_TOT= -0.2661526E-03 <-- DLTA
 ------------------------------------------------------------------------------
 Cycle:      9
  WF centre and spread    1  ( -0.447667, -0.447667, -0.447667 )     3.05818205
  WF centre and spread    2  ( -0.447667, -0.909831, -0.909831 )     3.05818239
  WF centre and spread    3  ( -0.909831, -0.447667, -0.909831 )     3.05818198
  WF centre and spread    4  ( -0.909831, -0.909831, -0.447667 )     3.05818239
  WF centre and spread    5  (  1.136468,  1.136469,  1.136468 )     2.66546746
  WF centre and spread    6  (  1.136468,  0.221030,  0.221030 )     2.66546787
  WF centre and spread    7  (  0.221030,  1.136469,  0.221030 )     2.66546745
  WF centre and spread    8  (  0.221030,  0.221030,  1.136468 )     2.66546785
  Sum of centres and spreads ( -0.000000,  0.000001,  0.000000 )    22.89459945

      9    -0.137E-03     0.0103250384       22.8945994545       3.51  <-- CONV
        O_D=      0.3411543 O_OD=      6.7046027 O_TOT=     22.8945995 <-- SPRD
 Delta: O_D= -0.1017056E-03 O_OD= -0.3508455E-04 O_TOT= -0.1367901E-03 <-- DLTA
 ------------------------------------------------------------------------------
 Cycle:     10
  WF centre and spread    1  ( -0.447694, -0.447694, -0.447694 )     3.06027954
  WF centre and spread    2  ( -0.447694, -0.909804, -0.909804 )     3.06027992
  WF centre and spread    3  ( -0.909805, -0.447694, -0.909805 )     3.06027947
  WF centre and spread    4  ( -0.909804, -0.909804, -0.447694 )     3.06027993
  WF centre and spread    5  (  1.136441,  1.136442,  1.136441 )     2.66334948
  WF centre and spread    6  (  1.136441,  0.221057,  0.221057 )     2.66334990
  WF centre and spread    7  (  0.221057,  1.136442,  0.221057 )     2.66334947
  WF centre and spread    8  (  0.221057,  0.221057,  1.136441 )     2.66334988
  Sum of centres and spreads ( -0.000000,  0.000001,  0.000000 )    22.89451758

     10    -0.819E-04     0.0079376239       22.8945175824       3.58  <-- CONV
        O_D=      0.3410912 O_OD=      6.7045839 O_TOT=     22.8945176 <-- SPRD
 Delta: O_D= -0.6302502E-04 O_OD= -0.1884705E-04 O_TOT= -0.8187206E-04 <-- DLTA
 ------------------------------------------------------------------------------
 Cycle:     11
  WF centre and spread    1  ( -0.447772, -0.447772, -0.447772 )     3.06333150
  WF centre and spread    2  ( -0.447772, -0.909726, -0.909726 )     3.06333195
  WF centre and spread    3  ( -0.909726, -0.447772, -0.909726 )     3.06333142
  WF centre and spread    4  ( -0.909726, -0.909726, -0.447772 )     3.06333195
  WF centre and spread    5  (  1.136381,  1.136381,  1.136381 )     2.66027862
  WF centre and spread    6  (  1.136381,  0.221117,  0.221117 )     2.66027904
  WF centre and spread    7  (  0.221117,  1.136381,  0.221117 )     2.66027861
  WF centre and spread    8  (  0.221117,  0.221117,  1.136381 )     2.66027902
  Sum of centres and spreads ( -0.000000,  0.000001,  0.000000 )    22.89444212

     11    -0.755E-04     0.0064307466       22.8944421205       3.65  <-- CONV
        O_D=      0.3409927 O_OD=      6.7046070 O_TOT=     22.8944421 <-- SPRD
 Delta: O_D= -0.9856435E-04 O_OD=  0.2310245E-04 O_TOT= -0.7546190E-04 <-- DLTA
 ------------------------------------------------------------------------------
 Cycle:     12
  WF centre and spread    1  ( -0.447897, -0.447897, -0.447897 )     3.06679174
  WF centre and spread    2  ( -0.447897, -0.909601, -0.909602 )     3.06679226
  WF centre and spread    3  ( -0.909602, -0.447897, -0.909602 )     3.06679165
  WF centre and spread    4  ( -0.909601, -0.909601, -0.447897 )     3.06679227
  WF centre and spread    5  (  1.136339,  1.136339,  1.136339 )     2.65680131
  WF centre and spread    6  (  1.136339,  0.221159,  0.221159 )     2.65680173
  WF centre and spread    7  (  0.221159,  1.136339,  0.221159 )     2.65680129
  WF centre and spread    8  (  0.221159,  0.221159,  1.136339 )     2.65680171
  Sum of centres and spreads ( -0.000000,  0.000001, -0.000000 )    22.89437396

     12    -0.682E-04     0.0062252478       22.8943739616       3.72  <-- CONV
        O_D=      0.3408540 O_OD=      6.7046775 O_TOT=     22.8943740 <-- SPRD
 Delta: O_D= -0.1387094E-03 O_OD=  0.7055053E-04 O_TOT= -0.6815892E-04 <-- DLTA
 ------------------------------------------------------------------------------
 Cycle:     13
  WF centre and spread    1  ( -0.447911, -0.447911, -0.447911 )     3.06693693
  WF centre and spread    2  ( -0.447912, -0.909587, -0.909587 )     3.06693746
  WF centre and spread    3  ( -0.909587, -0.447911, -0.909587 )     3.06693684
  WF centre and spread    4  ( -0.909587, -0.909587, -0.447912 )     3.06693747
  WF centre and spread    5  (  1.136359,  1.136359,  1.136359 )     2.65665185
  WF centre and spread    6  (  1.136359,  0.221139,  0.221139 )     2.65665226
  WF centre and spread    7  (  0.221139,  1.136359,  0.221139 )     2.65665183
  WF centre and spread    8  (  0.221139,  0.221139,  1.136359 )     2.65665225
  Sum of centres and spreads ( -0.000000,  0.000001, -0.000000 )    22.89435689

     13    -0.171E-04     0.0042813892       22.8943568925       3.79  <-- CONV
        O_D=      0.3408571 O_OD=      6.7046573 O_TOT=     22.8943569 <-- SPRD
 Delta: O_D=  0.3146170E-05 O_OD= -0.2021525E-04 O_TOT= -0.1706908E-04 <-- DLTA
 ------------------------------------------------------------------------------
 Cycle:     14
  WF centre and spread    1  ( -0.447928, -0.447928, -0.447927 )     3.06714256
  WF centre and spread    2  ( -0.447928, -0.909571, -0.909571 )     3.06714310
  WF centre and spread    3  ( -0.909571, -0.447927, -0.909571 )     3.06714247
  WF centre and spread    4  ( -0.909571, -0.909571, -0.447928 )     3.06714311
  WF centre and spread    5  (  1.136373,  1.136373,  1.136373 )     2.65644468
  WF centre and spread    6  (  1.136373,  0.221125,  0.221125 )     2.65644510
  WF centre and spread    7  (  0.221125,  1.136373,  0.221125 )     2.65644467
  WF centre and spread    8  (  0.221125,  0.221125,  1.136373 )     2.65644508
  Sum of centres and spreads ( -0.000000,  0.000001, -0.000000 )    22.89435076

     14    -0.613E-05     0.0024760907       22.8943507648       3.86  <-- CONV
        O_D=      0.3408625 O_OD=      6.7046458 O_TOT=     22.8943508 <-- SPRD
 Delta: O_D=  0.5395023E-05 O_OD= -0.1152271E-04 O_TOT= -0.6127685E-05 <-- DLTA
 ------------------------------------------------------------------------------
 Cycle:     15
  WF centre and spread    1  ( -0.447943, -0.447943, -0.447943 )     3.06741753
  WF centre and spread    2  ( -0.447943, -0.909555, -0.909555 )     3.06741808
  WF centre and spread    3  ( -0.909555, -0.447943, -0.909555 )     3.06741743
  WF centre and spread    4  ( -0.909555, -0.909555, -0.447943 )     3.06741809
  WF centre and spread    5  (  1.136372,  1.136372,  1.136372 )     2.65616905
  WF centre and spread    6  (  1.136372,  0.221126,  0.221126 )     2.65616946
  WF centre and spread    7  (  0.221126,  1.136372,  0.221126 )     2.65616903
  WF centre and spread    8  (  0.221126,  0.221126,  1.136372 )     2.65616944
  Sum of centres and spreads ( -0.000000,  0.000001, -0.000000 )    22.89434811

     15    -0.266E-05     0.0014163022       22.8943481091       3.93  <-- CONV
        O_D=      0.3408605 O_OD=      6.7046451 O_TOT=     22.8943481 <-- SPRD
 Delta: O_D= -0.2011807E-05 O_OD= -0.6439849E-06 O_TOT= -0.2655792E-05 <-- DLTA
 ------------------------------------------------------------------------------
 Cycle:     16
  WF centre and spread    1  ( -0.447953, -0.447953, -0.447953 )     3.06774606
  WF centre and spread    2  ( -0.447953, -0.909545, -0.909545 )     3.06774663
  WF centre and spread    3  ( -0.909545, -0.447953, -0.909545 )     3.06774596
  WF centre and spread    4  ( -0.909545, -0.909545, -0.447953 )     3.06774665
  WF centre and spread    5  (  1.136364,  1.136364,  1.136364 )     2.65584010
  WF centre and spread    6  (  1.136364,  0.221134,  0.221134 )     2.65584051
  WF centre and spread    7  (  0.221134,  1.136364,  0.221134 )     2.65584008
  WF centre and spread    8  (  0.221134,  0.221134,  1.136364 )     2.65584050
  Sum of centres and spreads ( -0.000000,  0.000001, -0.000000 )    22.89434650

     16    -0.161E-05     0.0010827305       22.8943465024       4.00  <-- CONV
        O_D=      0.3408539 O_OD=      6.7046501 O_TOT=     22.8943465 <-- SPRD
 Delta: O_D= -0.6609373E-05 O_OD=  0.5002697E-05 O_TOT= -0.1606677E-05 <-- DLTA
 ------------------------------------------------------------------------------
 Cycle:     17
  WF centre and spread    1  ( -0.447957, -0.447957, -0.447957 )     3.06809941
  WF centre and spread    2  ( -0.447957, -0.909541, -0.909541 )     3.06810000
  WF centre and spread    3  ( -0.909541, -0.447957, -0.909541 )     3.06809931
  WF centre and spread    4  ( -0.909541, -0.909541, -0.447957 )     3.06810002
  WF centre and spread    5  (  1.136357,  1.136357,  1.136357 )     2.65548648
  WF centre and spread    6  (  1.136357,  0.221142,  0.221142 )     2.65548689
  WF centre and spread    7  (  0.221142,  1.136357,  0.221142 )     2.65548646
  WF centre and spread    8  (  0.221142,  0.221142,  1.136357 )     2.65548687
  Sum of centres and spreads ( -0.000000,  0.000001, -0.000000 )    22.89434544

     17    -0.107E-05     0.0008436923       22.8943454361       4.07  <-- CONV
        O_D=      0.3408402 O_OD=      6.7046628 O_TOT=     22.8943454 <-- SPRD
 Delta: O_D= -0.1371914E-04 O_OD=  0.1265282E-04 O_TOT= -0.1066318E-05 <-- DLTA
 ------------------------------------------------------------------------------
 Cycle:     18
  WF centre and spread    1  ( -0.447958, -0.447958, -0.447958 )     3.06846141
  WF centre and spread    2  ( -0.447959, -0.909540, -0.909540 )     3.06846203
  WF centre and spread    3  ( -0.909540, -0.447958, -0.909540 )     3.06846130
  WF centre and spread    4  ( -0.909540, -0.909540, -0.447959 )     3.06846205
  WF centre and spread    5  (  1.136351,  1.136352,  1.136351 )     2.65512427
  WF centre and spread    6  (  1.136351,  0.221147,  0.221147 )     2.65512467
  WF centre and spread    7  (  0.221147,  1.136352,  0.221147 )     2.65512425
  WF centre and spread    8  (  0.221147,  0.221147,  1.136351 )     2.65512466
  Sum of centres and spreads ( -0.000000,  0.000001, -0.000000 )    22.89434464

     18    -0.799E-06     0.0007155246       22.8943446372       4.15  <-- CONV
        O_D=      0.3408163 O_OD=      6.7046858 O_TOT=     22.8943446 <-- SPRD
 Delta: O_D= -0.2384548E-04 O_OD=  0.2304663E-04 O_TOT= -0.7988453E-06 <-- DLTA
 ------------------------------------------------------------------------------
 Cycle:     19
  WF centre and spread    1  ( -0.447960, -0.447960, -0.447959 )     3.06849774
  WF centre and spread    2  ( -0.447960, -0.909538, -0.909539 )     3.06849836
  WF centre and spread    3  ( -0.909539, -0.447959, -0.909539 )     3.06849763
  WF centre and spread    4  ( -0.909539, -0.909539, -0.447960 )     3.06849839
  WF centre and spread    5  (  1.136352,  1.136352,  1.136352 )     2.65508783
  WF centre and spread    6  (  1.136352,  0.221146,  0.221146 )     2.65508824
  WF centre and spread    7  (  0.221146,  1.136352,  0.221146 )     2.65508782
  WF centre and spread    8  (  0.221146,  0.221146,  1.136352 )     2.65508823
  Sum of centres and spreads ( -0.000000,  0.000001, -0.000000 )    22.89434424

     19    -0.395E-06     0.0006093169       22.8943442421       4.22  <-- CONV
        O_D=      0.3408110 O_OD=      6.7046908 O_TOT=     22.8943442 <-- SPRD
 Delta: O_D= -0.5339056E-05 O_OD=  0.4943931E-05 O_TOT= -0.3951252E-06 <-- DLTA
 ------------------------------------------------------------------------------
 Cycle:     20
  WF centre and spread    1  ( -0.447960, -0.447960, -0.447960 )     3.06856316
  WF centre and spread    2  ( -0.447960, -0.909538, -0.909538 )     3.06856380
  WF centre and spread    3  ( -0.909539, -0.447960, -0.909539 )     3.06856305
  WF centre and spread    4  ( -0.909538, -0.909538, -0.447960 )     3.06856383
  WF centre and spread    5  (  1.136353,  1.136353,  1.136353 )     2.65502235
  WF centre and spread    6  (  1.136353,  0.221146,  0.221146 )     2.65502275
  WF centre and spread    7  (  0.221146,  1.136353,  0.221146 )     2.65502233
  WF centre and spread    8  (  0.221146,  0.221146,  1.136353 )     2.65502274
  Sum of centres and spreads ( -0.000000,  0.000001, -0.000000 )    22.89434401

     20    -0.231E-06     0.0004208527       22.8943440108       4.29  <-- CONV
        O_D=      0.3408039 O_OD=      6.7046976 O_TOT=     22.8943440 <-- SPRD
 Delta: O_D= -0.7105024E-05 O_OD=  0.6873752E-05 O_TOT= -0.2312728E-06 <-- DLTA
 ------------------------------------------------------------------------------
 Cycle:     21
  WF centre and spread    1  ( -0.447960, -0.447960, -0.447960 )     3.06864810
  WF centre and spread    2  ( -0.447960, -0.909538, -0.909538 )     3.06864875
  WF centre and spread    3  ( -0.909539, -0.447960, -0.909539 )     3.06864799
  WF centre and spread    4  ( -0.909538, -0.909538, -0.447960 )     3.06864878
  WF centre and spread    5  (  1.136352,  1.136352,  1.136352 )     2.65493736
  WF centre and spread    6  (  1.136352,  0.221146,  0.221146 )     2.65493777
  WF centre and spread    7  (  0.221146,  1.136352,  0.221146 )     2.65493735
  WF centre and spread    8  (  0.221146,  0.221146,  1.136352 )     2.65493775
  Sum of centres and spreads ( -0.000000,  0.000001, -0.000000 )    22.89434386

     21    -0.150E-06     0.0003239281       22.8943438611       4.36  <-- CONV
        O_D=      0.3407986 O_OD=      6.7047028 O_TOT=     22.8943439 <-- SPRD
 Delta: O_D= -0.5307598E-05 O_OD=  0.5157849E-05 O_TOT= -0.1497493E-06 <-- DLTA
 ------------------------------------------------------------------------------
 Cycle:     22
  WF centre and spread    1  ( -0.447960, -0.447960, -0.447960 )     3.06873654
  WF centre and spread    2  ( -0.447960, -0.909538, -0.909538 )     3.06873721
  WF centre and spread    3  ( -0.909538, -0.447960, -0.909538 )     3.06873642
  WF centre and spread    4  ( -0.909538, -0.909538, -0.447960 )     3.06873724
  WF centre and spread    5  (  1.136351,  1.136351,  1.136351 )     2.65484889
  WF centre and spread    6  (  1.136351,  0.221148,  0.221148 )     2.65484930
  WF centre and spread    7  (  0.221148,  1.136351,  0.221148 )     2.65484887
  WF centre and spread    8  (  0.221148,  0.221148,  1.136351 )     2.65484928
  Sum of centres and spreads ( -0.000000,  0.000001, -0.000000 )    22.89434377

     22    -0.950E-07     0.0002624675       22.8943437661       4.43  <-- CONV
        O_D=      0.3407946 O_OD=      6.7047066 O_TOT=     22.8943438 <-- SPRD
 Delta: O_D= -0.3918252E-05 O_OD=  0.3823280E-05 O_TOT= -0.9497248E-07 <-- DLTA
 ------------------------------------------------------------------------------
 Cycle:     23
  WF centre and spread    1  ( -0.447962, -0.447962, -0.447961 )     3.06883918
  WF centre and spread    2  ( -0.447962, -0.909537, -0.909537 )     3.06883988
  WF centre and spread    3  ( -0.909537, -0.447961, -0.909537 )     3.06883906
  WF centre and spread    4  ( -0.909537, -0.909537, -0.447962 )     3.06883992
  WF centre and spread    5  (  1.136348,  1.136348,  1.136348 )     2.65474622
  WF centre and spread    6  (  1.136348,  0.221150,  0.221150 )     2.65474662
  WF centre and spread    7  (  0.221150,  1.136348,  0.221150 )     2.65474620
  WF centre and spread    8  (  0.221150,  0.221150,  1.136348 )     2.65474661
  Sum of centres and spreads ( -0.000000,  0.000001, -0.000000 )    22.89434369

     23    -0.765E-07     0.0002130140       22.8943436896       4.50  <-- CONV
        O_D=      0.3407901 O_OD=      6.7047111 O_TOT=     22.8943437 <-- SPRD
 Delta: O_D= -0.4503920E-05 O_OD=  0.4427386E-05 O_TOT= -0.7653363E-07 <-- DLTA
 ------------------------------------------------------------------------------
 Cycle:     24
  WF centre and spread    1  ( -0.447964, -0.447964, -0.447964 )     3.06893068
  WF centre and spread    2  ( -0.447964, -0.909534, -0.909534 )     3.06893140
  WF centre and spread    3  ( -0.909534, -0.447964, -0.909534 )     3.06893056
  WF centre and spread    4  ( -0.909534, -0.909534, -0.447964 )     3.06893144
  WF centre and spread    5  (  1.136347,  1.136347,  1.136347 )     2.65465470
  WF centre and spread    6  (  1.136347,  0.221151,  0.221151 )     2.65465510
  WF centre and spread    7  (  0.221151,  1.136347,  0.221151 )     2.65465468
  WF centre and spread    8  (  0.221151,  0.221151,  1.136347 )     2.65465509
  Sum of centres and spreads ( -0.000000,  0.000001, -0.000000 )    22.89434363

     24    -0.554E-07     0.0001982376       22.8943436342       4.57  <-- CONV
        O_D=      0.3407869 O_OD=      6.7047143 O_TOT=     22.8943436 <-- SPRD
 Delta: O_D= -0.3269704E-05 O_OD=  0.3214294E-05 O_TOT= -0.5541071E-07 <-- DLTA
 ------------------------------------------------------------------------------
 Cycle:     25
  WF centre and spread    1  ( -0.447965, -0.447965, -0.447965 )     3.06893578
  WF centre and spread    2  ( -0.447965, -0.909533, -0.909533 )     3.06893650
  WF centre and spread    3  ( -0.909533, -0.447965, -0.909533 )     3.06893566
  WF centre and spread    4  ( -0.909533, -0.909533, -0.447965 )     3.06893655
  WF centre and spread    5  (  1.136348,  1.136348,  1.136348 )     2.65464959
  WF centre and spread    6  (  1.136348,  0.221151,  0.221151 )     2.65464999
  WF centre and spread    7  (  0.221151,  1.136348,  0.221151 )     2.65464957
  WF centre and spread    8  (  0.221151,  0.221151,  1.136348 )     2.65464998
  Sum of centres and spreads ( -0.000000,  0.000001, -0.000000 )    22.89434361

     25    -0.217E-07     0.0001529761       22.8943436124       4.63  <-- CONV
        O_D=      0.3407874 O_OD=      6.7047137 O_TOT=     22.8943436 <-- SPRD
 Delta: O_D=  0.5126493E-06 O_OD= -0.5343627E-06 O_TOT= -0.2171334E-07 <-- DLTA
 ------------------------------------------------------------------------------
 Cycle:     26
  WF centre and spread    1  ( -0.447966, -0.447966, -0.447966 )     3.06894345
  WF centre and spread    2  ( -0.447966, -0.909532, -0.909532 )     3.06894419
  WF centre and spread    3  ( -0.909533, -0.447966, -0.909533 )     3.06894333
  WF centre and spread    4  ( -0.909532, -0.909532, -0.447966 )     3.06894423
  WF centre and spread    5  (  1.136348,  1.136348,  1.136348 )     2.65464191
  WF centre and spread    6  (  1.136348,  0.221150,  0.221150 )     2.65464231
  WF centre and spread    7  (  0.221150,  1.136348,  0.221150 )     2.65464189
  WF centre and spread    8  (  0.221150,  0.221150,  1.136348 )     2.65464230
  Sum of centres and spreads ( -0.000000,  0.000001, -0.000000 )    22.89434360

     26    -0.849E-08     0.0000891475       22.8943436039       4.70  <-- CONV
        O_D=      0.3407879 O_OD=      6.7047132 O_TOT=     22.8943436 <-- SPRD
 Delta: O_D=  0.5056463E-06 O_OD= -0.5141376E-06 O_TOT= -0.8491281E-08 <-- DLTA
 ------------------------------------------------------------------------------
 Cycle:     27
  WF centre and spread    1  ( -0.447967, -0.447967, -0.447967 )     3.06895500
  WF centre and spread    2  ( -0.447967, -0.909531, -0.909531 )     3.06895575
  WF centre and spread    3  ( -0.909532, -0.447967, -0.909532 )     3.06895488
  WF centre and spread    4  ( -0.909531, -0.909531, -0.447967 )     3.06895580
  WF centre and spread    5  (  1.136348,  1.136348,  1.136348 )     2.65463035
  WF centre and spread    6  (  1.136348,  0.221150,  0.221150 )     2.65463075
  WF centre and spread    7  (  0.221150,  1.136348,  0.221150 )     2.65463033
  WF centre and spread    8  (  0.221150,  0.221150,  1.136348 )     2.65463074
  Sum of centres and spreads ( -0.000000,  0.000001, -0.000000 )    22.89434360

     27    -0.357E-08     0.0000532229       22.8943436004       4.77  <-- CONV
        O_D=      0.3407879 O_OD=      6.7047132 O_TOT=     22.8943436 <-- SPRD
 Delta: O_D= -0.1493041E-07 O_OD=  0.1136452E-07 O_TOT= -0.3565894E-08 <-- DLTA
 ------------------------------------------------------------------------------
 Cycle:     28
  WF centre and spread    1  ( -0.447967, -0.447967, -0.447967 )     3.06896532
  WF centre and spread    2  ( -0.447967, -0.909531, -0.909531 )     3.06896608
  WF centre and spread    3  ( -0.909531, -0.447967, -0.909531 )     3.06896519
  WF centre and spread    4  ( -0.909531, -0.909531, -0.447968 )     3.06896613
  WF centre and spread    5  (  1.136348,  1.136348,  1.136348 )     2.65462003
  WF centre and spread    6  (  1.136348,  0.221150,  0.221150 )     2.65462043
  WF centre and spread    7  (  0.221150,  1.136348,  0.221150 )     2.65462001
  WF centre and spread    8  (  0.221150,  0.221150,  1.136348 )     2.65462042
  Sum of centres and spreads ( -0.000000,  0.000001, -0.000000 )    22.89434360

     28    -0.221E-08     0.0000507382       22.8943435982       4.83  <-- CONV
        O_D=      0.3407877 O_OD=      6.7047134 O_TOT=     22.8943436 <-- SPRD
 Delta: O_D= -0.1769007E-06 O_OD=  0.1746954E-06 O_TOT= -0.2205354E-08 <-- DLTA
 ------------------------------------------------------------------------------
 Cycle:     29
  WF centre and spread    1  ( -0.447967, -0.447967, -0.447967 )     3.06897174
  WF centre and spread    2  ( -0.447968, -0.909531, -0.909531 )     3.06897250
  WF centre and spread    3  ( -0.909531, -0.447967, -0.909531 )     3.06897161
  WF centre and spread    4  ( -0.909531, -0.909531, -0.447968 )     3.06897256
  WF centre and spread    5  (  1.136348,  1.136348,  1.136348 )     2.65461360
  WF centre and spread    6  (  1.136348,  0.221150,  0.221150 )     2.65461401
  WF centre and spread    7  (  0.221150,  1.136348,  0.221150 )     2.65461359
  WF centre and spread    8  (  0.221150,  0.221150,  1.136348 )     2.65461399
  Sum of centres and spreads ( -0.000000,  0.000001, -0.000000 )    22.89434360

     29    -0.132E-08     0.0000325563       22.8943435969       4.90  <-- CONV
        O_D=      0.3407874 O_OD=      6.7047137 O_TOT=     22.8943436 <-- SPRD
 Delta: O_D= -0.2564492E-06 O_OD=  0.2551322E-06 O_TOT= -0.1316991E-08 <-- DLTA
 ------------------------------------------------------------------------------
 Cycle:     30
  WF centre and spread    1  ( -0.447967, -0.447967, -0.447967 )     3.06897758
  WF centre and spread    2  ( -0.447968, -0.909531, -0.909531 )     3.06897835
  WF centre and spread    3  ( -0.909531, -0.447967, -0.909531 )     3.06897745
  WF centre and spread    4  ( -0.909531, -0.909531, -0.447968 )     3.06897841
  WF centre and spread    5  (  1.136348,  1.136348,  1.136348 )     2.65460776
  WF centre and spread    6  (  1.136348,  0.221150,  0.221150 )     2.65460816
  WF centre and spread    7  (  0.221150,  1.136348,  0.221150 )     2.65460774
  WF centre and spread    8  (  0.221150,  0.221150,  1.136348 )     2.65460815
  Sum of centres and spreads ( -0.000000,  0.000001, -0.000000 )    22.89434360

     30    -0.903E-09     0.0000234876       22.8943435960       4.96  <-- CONV
        O_D=      0.3407870 O_OD=      6.7047140 O_TOT=     22.8943436 <-- SPRD
 Delta: O_D= -0.3874434E-06 O_OD=  0.3865403E-06 O_TOT= -0.9030607E-09 <-- DLTA
 ------------------------------------------------------------------------------
 Cycle:     31
  WF centre and spread    1  ( -0.447967, -0.447967, -0.447967 )     3.06897760
  WF centre and spread    2  ( -0.447968, -0.909531, -0.909531 )     3.06897838
  WF centre and spread    3  ( -0.909531, -0.447967, -0.909531 )     3.06897748
  WF centre and spread    4  ( -0.909531, -0.909531, -0.447968 )     3.06897844
  WF centre and spread    5  (  1.136348,  1.136348,  1.136348 )     2.65460773
  WF centre and spread    6  (  1.136348,  0.221150,  0.221150 )     2.65460813
  WF centre and spread    7  (  0.221150,  1.136348,  0.221150 )     2.65460771
  WF centre and spread    8  (  0.221150,  0.221150,  1.136348 )     2.65460812
  Sum of centres and spreads ( -0.000000,  0.000001, -0.000000 )    22.89434360

     31    -0.943E-11     0.0000186938       22.8943435959       5.01  <-- CONV
        O_D=      0.3407870 O_OD=      6.7047141 O_TOT=     22.8943436 <-- SPRD
 Delta: O_D= -0.3175471E-08 O_OD=  0.3166037E-08 O_TOT= -0.9432455E-11 <-- DLTA
 ------------------------------------------------------------------------------
 Cycle:     32
  WF centre and spread    1  ( -0.447967, -0.447967, -0.447967 )     3.06898081
  WF centre and spread    2  ( -0.447968, -0.909531, -0.909531 )     3.06898160
  WF centre and spread    3  ( -0.909531, -0.447967, -0.909531 )     3.06898068
  WF centre and spread    4  ( -0.909531, -0.909531, -0.447968 )     3.06898166
  WF centre and spread    5  (  1.136348,  1.136348,  1.136348 )     2.65460452
  WF centre and spread    6  (  1.136348,  0.221151,  0.221150 )     2.65460492
  WF centre and spread    7  (  0.221150,  1.136348,  0.221150 )     2.65460450
  WF centre and spread    8  (  0.221150,  0.221151,  1.136348 )     2.65460491
  Sum of centres and spreads ( -0.000000,  0.000001, -0.000000 )    22.89434360

     32    -0.443E-09     0.0000185023       22.8943435955       5.08  <-- CONV
        O_D=      0.3407867 O_OD=      6.7047144 O_TOT=     22.8943436 <-- SPRD
 Delta: O_D= -0.3484065E-06 O_OD=  0.3479636E-06 O_TOT= -0.4428635E-09 <-- DLTA
 ------------------------------------------------------------------------------
 Cycle:     33
  WF centre and spread    1  ( -0.447967, -0.447967, -0.447967 )     3.06898478
  WF centre and spread    2  ( -0.447968, -0.909531, -0.909531 )     3.06898558
  WF centre and spread    3  ( -0.909531, -0.447967, -0.909531 )     3.06898465
  WF centre and spread    4  ( -0.909531, -0.909531, -0.447968 )     3.06898564
  WF centre and spread    5  (  1.136348,  1.136348,  1.136348 )     2.65460054
  WF centre and spread    6  (  1.136348,  0.221151,  0.221150 )     2.65460095
  WF centre and spread    7  (  0.221150,  1.136348,  0.221150 )     2.65460052
  WF centre and spread    8  (  0.221150,  0.221151,  1.136348 )     2.65460093
  Sum of centres and spreads ( -0.000000,  0.000001, -0.000000 )    22.89434360

     33    -0.159E-09     0.0000221121       22.8943435953       5.15  <-- CONV
        O_D=      0.3407863 O_OD=      6.7047148 O_TOT=     22.8943436 <-- SPRD
 Delta: O_D= -0.3790087E-06 O_OD=  0.3788493E-06 O_TOT= -0.1593996E-09 <-- DLTA
 ------------------------------------------------------------------------------
 Cycle:     34
  WF centre and spread    1  ( -0.447967, -0.447967, -0.447967 )     3.06898998
  WF centre and spread    2  ( -0.447968, -0.909531, -0.909531 )     3.06899079
  WF centre and spread    3  ( -0.909531, -0.447967, -0.909531 )     3.06898984
  WF centre and spread    4  ( -0.909531, -0.909531, -0.447968 )     3.06899085
  WF centre and spread    5  (  1.136348,  1.136348,  1.136348 )     2.65459534
  WF centre and spread    6  (  1.136348,  0.221151,  0.221150 )     2.65459575
  WF centre and spread    7  (  0.221151,  1.136348,  0.221151 )     2.65459532
  WF centre and spread    8  (  0.221150,  0.221151,  1.136348 )     2.65459573
  Sum of centres and spreads ( -0.000000,  0.000001, -0.000000 )    22.89434360

     34    -0.300E-09     0.0000299675       22.8943435950       5.22  <-- CONV
        O_D=      0.3407859 O_OD=      6.7047152 O_TOT=     22.8943436 <-- SPRD
 Delta: O_D= -0.4412946E-06 O_OD=  0.4409943E-06 O_TOT= -0.3002434E-09 <-- DLTA
 ------------------------------------------------------------------------------
 Cycle:     35
  WF centre and spread    1  ( -0.447967, -0.447967, -0.447967 )     3.06899506
  WF centre and spread    2  ( -0.447968, -0.909531, -0.909531 )     3.06899588
  WF centre and spread    3  ( -0.909531, -0.447967, -0.909531 )     3.06899492
  WF centre and spread    4  ( -0.909531, -0.909531, -0.447968 )     3.06899595
  WF centre and spread    5  (  1.136348,  1.136348,  1.136348 )     2.65459025
  WF centre and spread    6  (  1.136348,  0.221151,  0.221151 )     2.65459066
  WF centre and spread    7  (  0.221151,  1.136348,  0.221151 )     2.65459023
  WF centre and spread    8  (  0.221151,  0.221151,  1.136348 )     2.65459064
  Sum of centres and spreads ( -0.000000,  0.000001, -0.000000 )    22.89434359

     35    -0.295E-09     0.0000275411       22.8943435947       5.28  <-- CONV
        O_D=      0.3407855 O_OD=      6.7047156 O_TOT=     22.8943436 <-- SPRD
 Delta: O_D= -0.3520974E-06 O_OD=  0.3518027E-06 O_TOT= -0.2947473E-09 <-- DLTA
 ------------------------------------------------------------------------------
 Cycle:     36
  WF centre and spread    1  ( -0.447968, -0.447968, -0.447967 )     3.06900839
  WF centre and spread    2  ( -0.447968, -0.909530, -0.909531 )     3.06900926
  WF centre and spread    3  ( -0.909531, -0.447967, -0.909531 )     3.06900825
  WF centre and spread    4  ( -0.909531, -0.909531, -0.447968 )     3.06900933
  WF centre and spread    5  (  1.136348,  1.136348,  1.136348 )     2.65457690
  WF centre and spread    6  (  1.136348,  0.221151,  0.221151 )     2.65457730
  WF centre and spread    7  (  0.221151,  1.136348,  0.221151 )     2.65457688
  WF centre and spread    8  (  0.221151,  0.221151,  1.136348 )     2.65457729
  Sum of centres and spreads ( -0.000000,  0.000001, -0.000000 )    22.89434360

     36     0.893E-09     0.0000214211       22.8943435956       5.33  <-- CONV
        O_D=      0.3407849 O_OD=      6.7047162 O_TOT=     22.8943436 <-- SPRD
 Delta: O_D= -0.5982827E-06 O_OD=  0.5991761E-06 O_TOT=  0.8933867E-09 <-- DLTA
 ------------------------------------------------------------------------------
 Cycle:     37
  WF centre and spread    1  ( -0.447968, -0.447968, -0.447967 )     3.06900850
  WF centre and spread    2  ( -0.447968, -0.909530, -0.909531 )     3.06900937
  WF centre and spread    3  ( -0.909531, -0.447967, -0.909531 )     3.06900836
  WF centre and spread    4  ( -0.909530, -0.909531, -0.447968 )     3.06900944
  WF centre and spread    5  (  1.136348,  1.136348,  1.136348 )     2.65457679
  WF centre and spread    6  (  1.136348,  0.221151,  0.221151 )     2.65457719
  WF centre and spread    7  (  0.221151,  1.136348,  0.221151 )     2.65457677
  WF centre and spread    8  (  0.221151,  0.221151,  1.136348 )     2.65457718
  Sum of centres and spreads ( -0.000000,  0.000001, -0.000000 )    22.89434359

     37    -0.120E-08     0.0000450608       22.8943435944       5.37  <-- CONV
        O_D=      0.3407850 O_OD=      6.7047161 O_TOT=     22.8943436 <-- SPRD
 Delta: O_D=  0.6190239E-07 O_OD= -0.6310248E-07 O_TOT= -0.1200089E-08 <-- DLTA
 ------------------------------------------------------------------------------
 Cycle:     38
  WF centre and spread    1  ( -0.447968, -0.447968, -0.447967 )     3.06900850
  WF centre and spread    2  ( -0.447968, -0.909530, -0.909531 )     3.06900937
  WF centre and spread    3  ( -0.909531, -0.447967, -0.909531 )     3.06900836
  WF centre and spread    4  ( -0.909530, -0.909531, -0.447968 )     3.06900944
  WF centre and spread    5  (  1.136348,  1.136348,  1.136348 )     2.65457679
  WF centre and spread    6  (  1.136348,  0.221151,  0.221151 )     2.65457719
  WF centre and spread    7  (  0.221151,  1.136348,  0.221151 )     2.65457677
  WF centre and spread    8  (  0.221151,  0.221151,  1.136348 )     2.65457718
  Sum of centres and spreads ( -0.000000,  0.000001, -0.000000 )    22.89434359

     38    -0.696E-11     0.0000157859       22.8943435944       5.40  <-- CONV
        O_D=      0.3407850 O_OD=      6.7047161 O_TOT=     22.8943436 <-- SPRD
 Delta: O_D=  0.1826964E-08 O_OD= -0.1833923E-08 O_TOT= -0.6959766E-11 <-- DLTA
 ------------------------------------------------------------------------------
 Cycle:     39
  WF centre and spread    1  ( -0.447968, -0.447968, -0.447967 )     3.06900861
  WF centre and spread    2  ( -0.447968, -0.909530, -0.909531 )     3.06900948
  WF centre and spread    3  ( -0.909531, -0.447968, -0.909531 )     3.06900846
  WF centre and spread    4  ( -0.909530, -0.909530, -0.447968 )     3.06900955
  WF centre and spread    5  (  1.136348,  1.136348,  1.136348 )     2.65457668
  WF centre and spread    6  (  1.136348,  0.221151,  0.221151 )     2.65457709
  WF centre and spread    7  (  0.221151,  1.136348,  0.221151 )     2.65457666
  WF centre and spread    8  (  0.221151,  0.221151,  1.136348 )     2.65457707
  Sum of centres and spreads ( -0.000000,  0.000001, -0.000000 )    22.89434359

     39    -0.289E-09     0.0000156438       22.8943435941       5.44  <-- CONV
        O_D=      0.3407851 O_OD=      6.7047160 O_TOT=     22.8943436 <-- SPRD
 Delta: O_D=  0.1052928E-06 O_OD= -0.1055819E-06 O_TOT= -0.2890737E-09 <-- DLTA
 ------------------------------------------------------------------------------
 Cycle:     40
  WF centre and spread    1  ( -0.447968, -0.447968, -0.447968 )     3.06900871
  WF centre and spread    2  ( -0.447968, -0.909530, -0.909530 )     3.06900958
  WF centre and spread    3  ( -0.909531, -0.447968, -0.909531 )     3.06900856
  WF centre and spread    4  ( -0.909530, -0.909530, -0.447968 )     3.06900965
  WF centre and spread    5  (  1.136348,  1.136348,  1.136348 )     2.65457658
  WF centre and spread    6  (  1.136348,  0.221151,  0.221151 )     2.65457699
  WF centre and spread    7  (  0.221151,  1.136348,  0.221151 )     2.65457656
  WF centre and spread    8  (  0.221151,  0.221151,  1.136348 )     2.65457697
  Sum of centres and spreads ( -0.000000,  0.000001, -0.000000 )    22.89434359

     40    -0.154E-09     0.0000104785       22.8943435940       5.48  <-- CONV
        O_D=      0.3407852 O_OD=      6.7047159 O_TOT=     22.8943436 <-- SPRD
 Delta: O_D=  0.1005101E-06 O_OD= -0.1006641E-06 O_TOT= -0.1539817E-09 <-- DLTA
 ------------------------------------------------------------------------------
 Cycle:     41
  WF centre and spread    1  ( -0.447968, -0.447968, -0.447968 )     3.06900909
  WF centre and spread    2  ( -0.447968, -0.909530, -0.909530 )     3.06900999
  WF centre and spread    3  ( -0.909530, -0.447968, -0.909530 )     3.06900895
  WF centre and spread    4  ( -0.909530, -0.909530, -0.447968 )     3.06901007
  WF centre and spread    5  (  1.136348,  1.136348,  1.136348 )     2.65457618
  WF centre and spread    6  (  1.136348,  0.221151,  0.221151 )     2.65457659
  WF centre and spread    7  (  0.221151,  1.136348,  0.221151 )     2.65457616
  WF centre and spread    8  (  0.221151,  0.221151,  1.136348 )     2.65457657
  Sum of centres and spreads ( -0.000000,  0.000001, -0.000000 )    22.89434359

     41    -0.841E-10     0.0000093921       22.8943435939       5.52  <-- CONV
        O_D=      0.3407856 O_OD=      6.7047155 O_TOT=     22.8943436 <-- SPRD
 Delta: O_D=  0.3653215E-06 O_OD= -0.3654055E-06 O_TOT= -0.8407852E-10 <-- DLTA
 ------------------------------------------------------------------------------
 Cycle:     42
  WF centre and spread    1  ( -0.447968, -0.447968, -0.447968 )     3.06900910
  WF centre and spread    2  ( -0.447968, -0.909530, -0.909530 )     3.06900999
  WF centre and spread    3  ( -0.909530, -0.447968, -0.909530 )     3.06900895
  WF centre and spread    4  ( -0.909530, -0.909530, -0.447968 )     3.06901007
  WF centre and spread    5  (  1.136348,  1.136348,  1.136348 )     2.65457617
  WF centre and spread    6  (  1.136348,  0.221151,  0.221151 )     2.65457658
  WF centre and spread    7  (  0.221151,  1.136348,  0.221151 )     2.65457616
  WF centre and spread    8  (  0.221151,  0.221151,  1.136348 )     2.65457657
  Sum of centres and spreads ( -0.000000,  0.000001, -0.000000 )    22.89434359

     42    -0.230E-10     0.0000095570       22.8943435939       5.56  <-- CONV
        O_D=      0.3407856 O_OD=      6.7047155 O_TOT=     22.8943436 <-- SPRD
 Delta: O_D= -0.8687276E-08 O_OD=  0.8664253E-08 O_TOT= -0.2302158E-10 <-- DLTA
 ------------------------------------------------------------------------------
 Cycle:     43
  WF centre and spread    1  ( -0.447968, -0.447968, -0.447968 )     3.06900912
  WF centre and spread    2  ( -0.447968, -0.909530, -0.909530 )     3.06901002
  WF centre and spread    3  ( -0.909530, -0.447968, -0.909530 )     3.06900897
  WF centre and spread    4  ( -0.909530, -0.909530, -0.447968 )     3.06901010
  WF centre and spread    5  (  1.136348,  1.136348,  1.136348 )     2.65457615
  WF centre and spread    6  (  1.136348,  0.221151,  0.221151 )     2.65457656
  WF centre and spread    7  (  0.221151,  1.136348,  0.221151 )     2.65457613
  WF centre and spread    8  (  0.221151,  0.221151,  1.136348 )     2.65457655
  Sum of centres and spreads ( -0.000000,  0.000001, -0.000000 )    22.89434359

     43    -0.377E-10     0.0000074772       22.8943435938       5.61  <-- CONV
        O_D=      0.3407855 O_OD=      6.7047156 O_TOT=     22.8943436 <-- SPRD
 Delta: O_D= -0.3969211E-07 O_OD=  0.3965443E-07 O_TOT= -0.3768008E-10 <-- DLTA
 ------------------------------------------------------------------------------
 Cycle:     44
  WF centre and spread    1  ( -0.447968, -0.447968, -0.447968 )     3.06900912
  WF centre and spread    2  ( -0.447968, -0.909530, -0.909530 )     3.06901002
  WF centre and spread    3  ( -0.909530, -0.447968, -0.909530 )     3.06900897
  WF centre and spread    4  ( -0.909530, -0.909530, -0.447968 )     3.06901010
  WF centre and spread    5  (  1.136348,  1.136348,  1.136348 )     2.65457615
  WF centre and spread    6  (  1.136348,  0.221151,  0.221151 )     2.65457656
  WF centre and spread    7  (  0.221151,  1.136348,  0.221151 )     2.65457613
  WF centre and spread    8  (  0.221151,  0.221151,  1.136348 )     2.65457654
  Sum of centres and spreads ( -0.000000,  0.000001, -0.000000 )    22.89434359

     44    -0.774E-12     0.0000050546       22.8943435938       5.65  <-- CONV
        O_D=      0.3407855 O_OD=      6.7047156 O_TOT=     22.8943436 <-- SPRD
 Delta: O_D= -0.1553643E-08 O_OD=  0.1552869E-08 O_TOT= -0.7744916E-12 <-- DLTA
 ------------------------------------------------------------------------------
 Cycle:     45
  WF centre and spread    1  ( -0.447968, -0.447968, -0.447968 )     3.06900914
  WF centre and spread    2  ( -0.447968, -0.909530, -0.909530 )     3.06901004
  WF centre and spread    3  ( -0.909530, -0.447968, -0.909530 )     3.06900899
  WF centre and spread    4  ( -0.909530, -0.909530, -0.447968 )     3.06901012
  WF centre and spread    5  (  1.136348,  1.136348,  1.136348 )     2.65457613
  WF centre and spread    6  (  1.136348,  0.221151,  0.221151 )     2.65457654
  WF centre and spread    7  (  0.221151,  1.136348,  0.221151 )     2.65457611
  WF centre and spread    8  (  0.221151,  0.221151,  1.136348 )     2.65457653
  Sum of centres and spreads ( -0.000000,  0.000001, -0.000000 )    22.89434359

     45    -0.134E-10     0.0000050343       22.8943435938       5.69  <-- CONV
        O_D=      0.3407855 O_OD=      6.7047156 O_TOT=     22.8943436 <-- SPRD
 Delta: O_D= -0.1926914E-07 O_OD=  0.1925577E-07 O_TOT= -0.1336531E-10 <-- DLTA
 ------------------------------------------------------------------------------
 Cycle:     46
  WF centre and spread    1  ( -0.447968, -0.447968, -0.447968 )     3.06900914
  WF centre and spread    2  ( -0.447968, -0.909530, -0.909530 )     3.06901004
  WF centre and spread    3  ( -0.909530, -0.447968, -0.909530 )     3.06900899
  WF centre and spread    4  ( -0.909530, -0.909530, -0.447968 )     3.06901012
  WF centre and spread    5  (  1.136348,  1.136348,  1.136348 )     2.65457613
  WF centre and spread    6  (  1.136348,  0.221151,  0.221151 )     2.65457654
  WF centre and spread    7  (  0.221151,  1.136348,  0.221151 )     2.65457611
  WF centre and spread    8  (  0.221151,  0.221151,  1.136348 )     2.65457652
  Sum of centres and spreads ( -0.000000,  0.000001, -0.000000 )    22.89434359

     46    -0.159E-11     0.0000037199       22.8943435938       5.73  <-- CONV
        O_D=      0.3407855 O_OD=      6.7047156 O_TOT=     22.8943436 <-- SPRD
 Delta: O_D= -0.2619769E-08 O_OD=  0.2618175E-08 O_TOT= -0.1591616E-11 <-- DLTA
 ------------------------------------------------------------------------------
 Cycle:     47
  WF centre and spread    1  ( -0.447968, -0.447968, -0.447968 )     3.06900915
  WF centre and spread    2  ( -0.447968, -0.909530, -0.909530 )     3.06901005
  WF centre and spread    3  ( -0.909530, -0.447968, -0.909530 )     3.06900900
  WF centre and spread    4  ( -0.909530, -0.909530, -0.447968 )     3.06901013
  WF centre and spread    5  (  1.136348,  1.136348,  1.136348 )     2.65457612
  WF centre and spread    6  (  1.136348,  0.221151,  0.221151 )     2.65457653
  WF centre and spread    7  (  0.221151,  1.136348,  0.221151 )     2.65457610
  WF centre and spread    8  (  0.221151,  0.221151,  1.136348 )     2.65457651
  Sum of centres and spreads ( -0.000000,  0.000001, -0.000000 )    22.89434359

     47    -0.576E-11     0.0000034838       22.8943435938       5.77  <-- CONV
        O_D=      0.3407855 O_OD=      6.7047156 O_TOT=     22.8943436 <-- SPRD
 Delta: O_D= -0.9598724E-08 O_OD=  0.9592968E-08 O_TOT= -0.5755396E-11 <-- DLTA
 ------------------------------------------------------------------------------
 Cycle:     48
  WF centre and spread    1  ( -0.447968, -0.447968, -0.447968 )     3.06900915
  WF centre and spread    2  ( -0.447968, -0.909530, -0.909530 )     3.06901005
  WF centre and spread    3  ( -0.909530, -0.447968, -0.909530 )     3.06900900
  WF centre and spread    4  ( -0.909530, -0.909530, -0.447968 )     3.06901013
  WF centre and spread    5  (  1.136348,  1.136348,  1.136348 )     2.65457612
  WF centre and spread    6  (  1.136348,  0.221151,  0.221151 )     2.65457653
  WF centre and spread    7  (  0.221151,  1.136348,  0.221151 )     2.65457610
  WF centre and spread    8  (  0.221151,  0.221151,  1.136348 )     2.65457651
  Sum of centres and spreads ( -0.000000,  0.000001, -0.000000 )    22.89434359

     48    -0.199E-12     0.0000026209       22.8943435938       5.81  <-- CONV
        O_D=      0.3407855 O_OD=      6.7047156 O_TOT=     22.8943436 <-- SPRD
 Delta: O_D= -0.5850898E-09 O_OD=  0.5848912E-09 O_TOT= -0.1989520E-12 <-- DLTA
 ------------------------------------------------------------------------------
 Cycle:     49
  WF centre and spread    1  ( -0.447968, -0.447968, -0.447968 )     3.06900916
  WF centre and spread    2  ( -0.447968, -0.909530, -0.909530 )     3.06901006
  WF centre and spread    3  ( -0.909530, -0.447968, -0.909530 )     3.06900901
  WF centre and spread    4  ( -0.909530, -0.909530, -0.447968 )     3.06901014
  WF centre and spread    5  (  1.136348,  1.136348,  1.136348 )     2.65457611
  WF centre and spread    6  (  1.136348,  0.221151,  0.221151 )     2.65457652
  WF centre and spread    7  (  0.221151,  1.136348,  0.221151 )     2.65457609
  WF centre and spread    8  (  0.221151,  0.221151,  1.136348 )     2.65457650
  Sum of centres and spreads ( -0.000000,  0.000001, -0.000000 )    22.89434359

     49    -0.279E-11     0.0000025829       22.8943435938       5.85  <-- CONV
        O_D=      0.3407855 O_OD=      6.7047156 O_TOT=     22.8943436 <-- SPRD
 Delta: O_D= -0.6378371E-08 O_OD=  0.6375580E-08 O_TOT= -0.2792433E-11 <-- DLTA
 ------------------------------------------------------------------------------
 Cycle:     50
  WF centre and spread    1  ( -0.447968, -0.447968, -0.447968 )     3.06900916
  WF centre and spread    2  ( -0.447968, -0.909530, -0.909530 )     3.06901006
  WF centre and spread    3  ( -0.909530, -0.447968, -0.909530 )     3.06900901
  WF centre and spread    4  ( -0.909530, -0.909530, -0.447968 )     3.06901014
  WF centre and spread    5  (  1.136348,  1.136348,  1.136348 )     2.65457611
  WF centre and spread    6  (  1.136348,  0.221151,  0.221151 )     2.65457652
  WF centre and spread    7  (  0.221151,  1.136348,  0.221151 )     2.65457609
  WF centre and spread    8  (  0.221151,  0.221151,  1.136348 )     2.65457650
  Sum of centres and spreads ( -0.000000,  0.000001, -0.000000 )    22.89434359

     50    -0.387E-12     0.0000022218       22.8943435938       5.88  <-- CONV
        O_D=      0.3407855 O_OD=      6.7047156 O_TOT=     22.8943436 <-- SPRD
 Delta: O_D= -0.9102061E-09 O_OD=  0.9098189E-09 O_TOT= -0.3872458E-12 <-- DLTA
 ------------------------------------------------------------------------------
 Cycle:     51
  WF centre and spread    1  ( -0.447968, -0.447968, -0.447968 )     3.06900916
  WF centre and spread    2  ( -0.447968, -0.909530, -0.909530 )     3.06901007
  WF centre and spread    3  ( -0.909530, -0.447968, -0.909530 )     3.06900902
  WF centre and spread    4  ( -0.909530, -0.909530, -0.447968 )     3.06901015
  WF centre and spread    5  (  1.136348,  1.136348,  1.136348 )     2.65457610
  WF centre and spread    6  (  1.136348,  0.221151,  0.221151 )     2.65457651
  WF centre and spread    7  (  0.221151,  1.136348,  0.221151 )     2.65457608
  WF centre and spread    8  (  0.221151,  0.221151,  1.136348 )     2.65457650
  Sum of centres and spreads ( -0.000000,  0.000001, -0.000000 )    22.89434359

     51    -0.140E-11     0.0000021827       22.8943435938       5.92  <-- CONV
        O_D=      0.3407855 O_OD=      6.7047156 O_TOT=     22.8943436 <-- SPRD
 Delta: O_D= -0.3852742E-08 O_OD=  0.3851341E-08 O_TOT= -0.1403322E-11 <-- DLTA
 ------------------------------------------------------------------------------
 Cycle:     52
  WF centre and spread    1  ( -0.447968, -0.447968, -0.447968 )     3.06900917
  WF centre and spread    2  ( -0.447968, -0.909530, -0.909530 )     3.06901007
  WF centre and spread    3  ( -0.909530, -0.447968, -0.909530 )     3.06900902
  WF centre and spread    4  ( -0.909530, -0.909530, -0.447968 )     3.06901015
  WF centre and spread    5  (  1.136348,  1.136348,  1.136348 )     2.65457610
  WF centre and spread    6  (  1.136348,  0.221151,  0.221151 )     2.65457651
  WF centre and spread    7  (  0.221151,  1.136348,  0.221151 )     2.65457608
  WF centre and spread    8  (  0.221151,  0.221151,  1.136348 )     2.65457649
  Sum of centres and spreads ( -0.000000,  0.000001, -0.000000 )    22.89434359

     52    -0.490E-12     0.0000020411       22.8943435938       5.95  <-- CONV
        O_D=      0.3407855 O_OD=      6.7047156 O_TOT=     22.8943436 <-- SPRD
 Delta: O_D= -0.1422060E-08 O_OD=  0.1421568E-08 O_TOT= -0.4902745E-12 <-- DLTA
 ------------------------------------------------------------------------------
 Cycle:     53
  WF centre and spread    1  ( -0.447968, -0.447968, -0.447968 )     3.06900917
  WF centre and spread    2  ( -0.447968, -0.909530, -0.909530 )     3.06901007
  WF centre and spread    3  ( -0.909530, -0.447968, -0.909530 )     3.06900902
  WF centre and spread    4  ( -0.909530, -0.909530, -0.447968 )     3.06901015
  WF centre and spread    5  (  1.136348,  1.136348,  1.136348 )     2.65457610
  WF centre and spread    6  (  1.136348,  0.221151,  0.221151 )     2.65457651
  WF centre and spread    7  (  0.221151,  1.136348,  0.221151 )     2.65457608
  WF centre and spread    8  (  0.221151,  0.221151,  1.136348 )     2.65457649
  Sum of centres and spreads ( -0.000000,  0.000001, -0.000000 )    22.89434359

     53    -0.561E-12     0.0000019969       22.8943435938       5.98  <-- CONV
        O_D=      0.3407855 O_OD=      6.7047156 O_TOT=     22.8943436 <-- SPRD
 Delta: O_D= -0.1699308E-08 O_OD=  0.1698745E-08 O_TOT= -0.5613288E-12 <-- DLTA
 ------------------------------------------------------------------------------
 Cycle:     54
  WF centre and spread    1  ( -0.447968, -0.447968, -0.447968 )     3.06900917
  WF centre and spread    2  ( -0.447968, -0.909530, -0.909530 )     3.06901007
  WF centre and spread    3  ( -0.909530, -0.447968, -0.909530 )     3.06900902
  WF centre and spread    4  ( -0.909530, -0.909530, -0.447968 )     3.06901015
  WF centre and spread    5  (  1.136348,  1.136348,  1.136348 )     2.65457610
  WF centre and spread    6  (  1.136348,  0.221151,  0.221151 )     2.65457651
  WF centre and spread    7  (  0.221151,  1.136348,  0.221151 )     2.65457608
  WF centre and spread    8  (  0.221151,  0.221151,  1.136348 )     2.65457649
  Sum of centres and spreads ( -0.000000,  0.000001, -0.000000 )    22.89434359

     54    -0.675E-13     0.0000019487       22.8943435938       6.02  <-- CONV
        O_D=      0.3407855 O_OD=      6.7047156 O_TOT=     22.8943436 <-- SPRD
 Delta: O_D= -0.4940802E-09 O_OD=  0.4940128E-09 O_TOT= -0.6750156E-13 <-- DLTA
 ------------------------------------------------------------------------------
 Cycle:     55
  WF centre and spread    1  ( -0.447968, -0.447968, -0.447968 )     3.06900917
  WF centre and spread    2  ( -0.447968, -0.909530, -0.909530 )     3.06901008
  WF centre and spread    3  ( -0.909530, -0.447968, -0.909530 )     3.06900902
  WF centre and spread    4  ( -0.909530, -0.909530, -0.447968 )     3.06901016
  WF centre and spread    5  (  1.136348,  1.136348,  1.136348 )     2.65457610
  WF centre and spread    6  (  1.136348,  0.221151,  0.221151 )     2.65457650
  WF centre and spread    7  (  0.221151,  1.136348,  0.221151 )     2.65457608
  WF centre and spread    8  (  0.221151,  0.221151,  1.136348 )     2.65457649
[...]
  WF centre and spread    7  (  0.221151,  1.136348,  0.221151 )     2.65457600
  WF centre and spread    8  (  0.221151,  0.221151,  1.136348 )     2.65457641
  Sum of centres and spreads ( -0.000000,  0.000001, -0.000000 )    22.89434359

     84    -0.426E-13     0.0000010319       22.8943435938       7.04  <-- CONV
        O_D=      0.3407854 O_OD=      6.7047157 O_TOT=     22.8943436 <-- SPRD
 Delta: O_D= -0.2082168E-10 O_OD=  0.2077893E-10 O_TOT= -0.4263256E-13 <-- DLTA
 ------------------------------------------------------------------------------
 Cycle:     85
  WF centre and spread    1  ( -0.447968, -0.447968, -0.447968 )     3.06900924
  WF centre and spread    2  ( -0.447968, -0.909530, -0.909530 )     3.06901016
  WF centre and spread    3  ( -0.909531, -0.447968, -0.909530 )     3.06900909
  WF centre and spread    4  ( -0.909530, -0.909530, -0.447968 )     3.06901024
  WF centre and spread    5  (  1.136348,  1.136348,  1.136348 )     2.65457602
  WF centre and spread    6  (  1.136348,  0.221151,  0.221151 )     2.65457643
  WF centre and spread    7  (  0.221151,  1.136348,  0.221151 )     2.65457600
  WF centre and spread    8  (  0.221151,  0.221151,  1.136348 )     2.65457641
  Sum of centres and spreads ( -0.000000,  0.000001, -0.000000 )    22.89434359

     85     0.121E-12     0.0000010314       22.8943435938       7.09  <-- CONV
        O_D=      0.3407854 O_OD=      6.7047157 O_TOT=     22.8943436 <-- SPRD
 Delta: O_D= -0.9419499E-10 O_OD=  0.9431567E-10 O_TOT=  0.1207923E-12 <-- DLTA
 ------------------------------------------------------------------------------
 Cycle:     86
  WF centre and spread    1  ( -0.447968, -0.447968, -0.447968 )     3.06900924
  WF centre and spread    2  ( -0.447968, -0.909530, -0.909530 )     3.06901016
  WF centre and spread    3  ( -0.909531, -0.447968, -0.909530 )     3.06900910
  WF centre and spread    4  ( -0.909530, -0.909530, -0.447968 )     3.06901024
  WF centre and spread    5  (  1.136348,  1.136348,  1.136348 )     2.65457602
  WF centre and spread    6  (  1.136348,  0.221151,  0.221151 )     2.65457642
  WF centre and spread    7  (  0.221151,  1.136348,  0.221151 )     2.65457600
  WF centre and spread    8  (  0.221151,  0.221151,  1.136348 )     2.65457641
  Sum of centres and spreads ( -0.000000,  0.000001, -0.000000 )    22.89434359

     86    -0.853E-13     0.0000010294       22.8943435938       7.11  <-- CONV
        O_D=      0.3407854 O_OD=      6.7047157 O_TOT=     22.8943436 <-- SPRD
 Delta: O_D= -0.5275972E-09 O_OD=  0.5275105E-09 O_TOT= -0.8526513E-13 <-- DLTA
 ------------------------------------------------------------------------------
 Cycle:     87
  WF centre and spread    1  ( -0.447968, -0.447968, -0.447968 )     3.06900925
  WF centre and spread    2  ( -0.447968, -0.909530, -0.909530 )     3.06901017
  WF centre and spread    3  ( -0.909531, -0.447968, -0.909530 )     3.06900910
  WF centre and spread    4  ( -0.909530, -0.909530, -0.447968 )     3.06901025
  WF centre and spread    5  (  1.136348,  1.136348,  1.136348 )     2.65457601
  WF centre and spread    6  (  1.136348,  0.221151,  0.221151 )     2.65457642
  WF centre and spread    7  (  0.221151,  1.136348,  0.221151 )     2.65457599
  WF centre and spread    8  (  0.221151,  0.221151,  1.136348 )     2.65457641
  Sum of centres and spreads ( -0.000000,  0.000001, -0.000000 )    22.89434359

     87    -0.277E-12     0.0000010179       22.8943435938       7.16  <-- CONV
        O_D=      0.3407854 O_OD=      6.7047157 O_TOT=     22.8943436 <-- SPRD
 Delta: O_D= -0.1538109E-08 O_OD=  0.1537832E-08 O_TOT= -0.2771117E-12 <-- DLTA
 ------------------------------------------------------------------------------
 Cycle:     88
  WF centre and spread    1  ( -0.447968, -0.447968, -0.447968 )     3.06900925
  WF centre and spread    2  ( -0.447968, -0.909530, -0.909530 )     3.06901017
  WF centre and spread    3  ( -0.909531, -0.447968, -0.909530 )     3.06900910
  WF centre and spread    4  ( -0.909530, -0.909530, -0.447968 )     3.06901025
  WF centre and spread    5  (  1.136348,  1.136348,  1.136348 )     2.65457601
  WF centre and spread    6  (  1.136348,  0.221151,  0.221151 )     2.65457642
  WF centre and spread    7  (  0.221151,  1.136348,  0.221151 )     2.65457599
  WF centre and spread    8  (  0.221151,  0.221151,  1.136348 )     2.65457640
  Sum of centres and spreads ( -0.000000,  0.000001, -0.000000 )    22.89434359

     88    -0.149E-12     0.0000009843       22.8943435938       7.18  <-- CONV
        O_D=      0.3407854 O_OD=      6.7047157 O_TOT=     22.8943436 <-- SPRD
 Delta: O_D= -0.8138429E-09 O_OD=  0.8136949E-09 O_TOT= -0.1492140E-12 <-- DLTA
 ------------------------------------------------------------------------------
 Cycle:     89
  WF centre and spread    1  ( -0.447968, -0.447968, -0.447968 )     3.06900925
  WF centre and spread    2  ( -0.447968, -0.909530, -0.909530 )     3.06901017
  WF centre and spread    3  ( -0.909531, -0.447968, -0.909530 )     3.06900910
  WF centre and spread    4  ( -0.909530, -0.909530, -0.447968 )     3.06901025
  WF centre and spread    5  (  1.136348,  1.136348,  1.136348 )     2.65457601
  WF centre and spread    6  (  1.136348,  0.221151,  0.221151 )     2.65457642
  WF centre and spread    7  (  0.221151,  1.136348,  0.221151 )     2.65457599
  WF centre and spread    8  (  0.221151,  0.221151,  1.136348 )     2.65457640
  Sum of centres and spreads ( -0.000000,  0.000001, -0.000000 )    22.89434359

     89    -0.782E-13     0.0000009666       22.8943435938       7.22  <-- CONV
        O_D=      0.3407854 O_OD=      6.7047157 O_TOT=     22.8943436 <-- SPRD
 Delta: O_D= -0.9397710E-09 O_OD=  0.9396945E-09 O_TOT= -0.7815970E-13 <-- DLTA
 ------------------------------------------------------------------------------
 Cycle:     90
  WF centre and spread    1  ( -0.447968, -0.447968, -0.447968 )     3.06900925
  WF centre and spread    2  ( -0.447968, -0.909530, -0.909530 )     3.06901017
  WF centre and spread    3  ( -0.909531, -0.447968, -0.909530 )     3.06900910
  WF centre and spread    4  ( -0.909530, -0.909530, -0.447968 )     3.06901025
  WF centre and spread    5  (  1.136348,  1.136348,  1.136348 )     2.65457601
  WF centre and spread    6  (  1.136348,  0.221151,  0.221151 )     2.65457642
  WF centre and spread    7  (  0.221151,  1.136348,  0.221151 )     2.65457599
  WF centre and spread    8  (  0.221151,  0.221151,  1.136348 )     2.65457640
  Sum of centres and spreads ( -0.000000,  0.000001, -0.000000 )    22.89434359

     90    -0.497E-13     0.0000009462       22.8943435938       7.27  <-- CONV
        O_D=      0.3407854 O_OD=      6.7047157 O_TOT=     22.8943436 <-- SPRD
 Delta: O_D= -0.8103002E-10 O_OD=  0.8098056E-10 O_TOT= -0.4973799E-13 <-- DLTA
 ------------------------------------------------------------------------------
 Cycle:     91
  WF centre and spread    1  ( -0.447968, -0.447968, -0.447968 )     3.06900925
  WF centre and spread    2  ( -0.447968, -0.909530, -0.909530 )     3.06901017
  WF centre and spread    3  ( -0.909531, -0.447968, -0.909530 )     3.06900911
  WF centre and spread    4  ( -0.909530, -0.909530, -0.447968 )     3.06901025
  WF centre and spread    5  (  1.136348,  1.136348,  1.136348 )     2.65457601
  WF centre and spread    6  (  1.136348,  0.221151,  0.221151 )     2.65457641
  WF centre and spread    7  (  0.221151,  1.136348,  0.221151 )     2.65457599
  WF centre and spread    8  (  0.221151,  0.221151,  1.136348 )     2.65457640
  Sum of centres and spreads ( -0.000000,  0.000001, -0.000000 )    22.89434359

     91    -0.188E-12     0.0000009444       22.8943435938       7.29  <-- CONV
        O_D=      0.3407854 O_OD=      6.7047157 O_TOT=     22.8943436 <-- SPRD
 Delta: O_D= -0.3232327E-09 O_OD=  0.3230447E-09 O_TOT= -0.1882938E-12 <-- DLTA
 ------------------------------------------------------------------------------
 Cycle:     92
  WF centre and spread    1  ( -0.447968, -0.447968, -0.447968 )     3.06900925
  WF centre and spread    2  ( -0.447968, -0.909530, -0.909530 )     3.06901017
  WF centre and spread    3  ( -0.909531, -0.447968, -0.909530 )     3.06900911
  WF centre and spread    4  ( -0.909530, -0.909530, -0.447968 )     3.06901026
  WF centre and spread    5  (  1.136348,  1.136348,  1.136348 )     2.65457601
  WF centre and spread    6  (  1.136348,  0.221151,  0.221151 )     2.65457641
  WF centre and spread    7  (  0.221151,  1.136348,  0.221151 )     2.65457599
  WF centre and spread    8  (  0.221151,  0.221151,  1.136348 )     2.65457640
  Sum of centres and spreads ( -0.000000,  0.000001, -0.000000 )    22.89434359

     92     0.103E-12     0.0000009374       22.8943435938       7.33  <-- CONV
        O_D=      0.3407854 O_OD=      6.7047157 O_TOT=     22.8943436 <-- SPRD
 Delta: O_D= -0.1768748E-09 O_OD=  0.1769784E-09 O_TOT=  0.1030287E-12 <-- DLTA
 ------------------------------------------------------------------------------
 Cycle:     93
  WF centre and spread    1  ( -0.447968, -0.447968, -0.447968 )     3.06900926
  WF centre and spread    2  ( -0.447968, -0.909530, -0.909530 )     3.06901018
  WF centre and spread    3  ( -0.909531, -0.447968, -0.909530 )     3.06900911
  WF centre and spread    4  ( -0.909530, -0.909530, -0.447968 )     3.06901026
  WF centre and spread    5  (  1.136348,  1.136348,  1.136348 )     2.65457600
  WF centre and spread    6  (  1.136348,  0.221151,  0.221151 )     2.65457641
  WF centre and spread    7  (  0.221151,  1.136348,  0.221151 )     2.65457598
  WF centre and spread    8  (  0.221151,  0.221151,  1.136348 )     2.65457639
  Sum of centres and spreads ( -0.000000,  0.000001, -0.000000 )    22.89434359

     93    -0.245E-12     0.0000009336       22.8943435938       7.38  <-- CONV
        O_D=      0.3407854 O_OD=      6.7047157 O_TOT=     22.8943436 <-- SPRD
 Delta: O_D= -0.1627971E-08 O_OD=  0.1627726E-08 O_TOT= -0.2451372E-12 <-- DLTA
 ------------------------------------------------------------------------------
 Cycle:     94
  WF centre and spread    1  ( -0.447968, -0.447968, -0.447968 )     3.06900926
  WF centre and spread    2  ( -0.447968, -0.909530, -0.909530 )     3.06901018
  WF centre and spread    3  ( -0.909531, -0.447968, -0.909530 )     3.06900911
  WF centre and spread    4  ( -0.909530, -0.909530, -0.447968 )     3.06901026
  WF centre and spread    5  (  1.136348,  1.136348,  1.136348 )     2.65457600
  WF centre and spread    6  (  1.136348,  0.221151,  0.221151 )     2.65457641
  WF centre and spread    7  (  0.221151,  1.136348,  0.221151 )     2.65457598
  WF centre and spread    8  (  0.221151,  0.221151,  1.136348 )     2.65457639
  Sum of centres and spreads ( -0.000000,  0.000001, -0.000000 )    22.89434359

     94     0.853E-13     0.0000008984       22.8943435938       7.42  <-- CONV
        O_D=      0.3407854 O_OD=      6.7047157 O_TOT=     22.8943436 <-- SPRD
 Delta: O_D= -0.4873728E-09 O_OD=  0.4874572E-09 O_TOT=  0.8526513E-13 <-- DLTA
 ------------------------------------------------------------------------------
 Cycle:     95
  WF centre and spread    1  ( -0.447968, -0.447968, -0.447968 )     3.06900926
  WF centre and spread    2  ( -0.447968, -0.909530, -0.909530 )     3.06901018
  WF centre and spread    3  ( -0.909531, -0.447968, -0.909530 )     3.06900911
  WF centre and spread    4  ( -0.909530, -0.909530, -0.447968 )     3.06901027
  WF centre and spread    5  (  1.136348,  1.136348,  1.136348 )     2.65457600
  WF centre and spread    6  (  1.136348,  0.221151,  0.221151 )     2.65457640
  WF centre and spread    7  (  0.221151,  1.136348,  0.221151 )     2.65457598
  WF centre and spread    8  (  0.221151,  0.221151,  1.136348 )     2.65457639
  Sum of centres and spreads ( -0.000000,  0.000001, -0.000000 )    22.89434359

     95    -0.210E-12     0.0000008878       22.8943435938       7.45  <-- CONV
        O_D=      0.3407854 O_OD=      6.7047157 O_TOT=     22.8943436 <-- SPRD
 Delta: O_D= -0.8770578E-09 O_OD=  0.8768488E-09 O_TOT= -0.2096101E-12 <-- DLTA
 ------------------------------------------------------------------------------
 Cycle:     96
  WF centre and spread    1  ( -0.447968, -0.447968, -0.447968 )     3.06900926
  WF centre and spread    2  ( -0.447968, -0.909530, -0.909530 )     3.06901018
  WF centre and spread    3  ( -0.909531, -0.447968, -0.909530 )     3.06900911
  WF centre and spread    4  ( -0.909530, -0.909530, -0.447968 )     3.06901027
  WF centre and spread    5  (  1.136348,  1.136348,  1.136348 )     2.65457600
  WF centre and spread    6  (  1.136348,  0.221151,  0.221151 )     2.65457640
  WF centre and spread    7  (  0.221151,  1.136348,  0.221151 )     2.65457598
  WF centre and spread    8  (  0.221151,  0.221151,  1.136348 )     2.65457639
  Sum of centres and spreads ( -0.000000,  0.000001, -0.000000 )    22.89434359

     96    -0.178E-13     0.0000008689       22.8943435938       7.49  <-- CONV
        O_D=      0.3407854 O_OD=      6.7047157 O_TOT=     22.8943436 <-- SPRD
 Delta: O_D= -0.1790179E-10 O_OD=  0.1788525E-10 O_TOT= -0.1776357E-13 <-- DLTA
 ------------------------------------------------------------------------------
 Cycle:     97
  WF centre and spread    1  ( -0.447968, -0.447968, -0.447968 )     3.06900926
  WF centre and spread    2  ( -0.447968, -0.909530, -0.909530 )     3.06901018
  WF centre and spread    3  ( -0.909531, -0.447968, -0.909530 )     3.06900911
  WF centre and spread    4  ( -0.909530, -0.909530, -0.447968 )     3.06901027
  WF centre and spread    5  (  1.136348,  1.136348,  1.136348 )     2.65457600
  WF centre and spread    6  (  1.136348,  0.221151,  0.221151 )     2.65457640
  WF centre and spread    7  (  0.221151,  1.136348,  0.221151 )     2.65457598
  WF centre and spread    8  (  0.221151,  0.221151,  1.136348 )     2.65457639
  Sum of centres and spreads ( -0.000000,  0.000001, -0.000000 )    22.89434359

     97    -0.462E-13     0.0000008685       22.8943435938       7.51  <-- CONV
        O_D=      0.3407854 O_OD=      6.7047157 O_TOT=     22.8943436 <-- SPRD
 Delta: O_D= -0.2979324E-09 O_OD=  0.2978826E-09 O_TOT= -0.4618528E-13 <-- DLTA
 ------------------------------------------------------------------------------
 Cycle:     98
  WF centre and spread    1  ( -0.447968, -0.447968, -0.447968 )     3.06900927
  WF centre and spread    2  ( -0.447968, -0.909530, -0.909530 )     3.06901019
  WF centre and spread    3  ( -0.909531, -0.447968, -0.909530 )     3.06900912
  WF centre and spread    4  ( -0.909530, -0.909530, -0.447968 )     3.06901027
  WF centre and spread    5  (  1.136348,  1.136348,  1.136348 )     2.65457599
  WF centre and spread    6  (  1.136348,  0.221151,  0.221151 )     2.65457640
  WF centre and spread    7  (  0.221151,  1.136348,  0.221151 )     2.65457597
  WF centre and spread    8  (  0.221151,  0.221151,  1.136348 )     2.65457639
  Sum of centres and spreads ( -0.000000,  0.000001, -0.000000 )    22.89434359

     98    -0.817E-13     0.0000008621       22.8943435938       7.54  <-- CONV
        O_D=      0.3407854 O_OD=      6.7047157 O_TOT=     22.8943436 <-- SPRD
 Delta: O_D= -0.4414833E-09 O_OD=  0.4414051E-09 O_TOT= -0.8171241E-13 <-- DLTA
 ------------------------------------------------------------------------------
 Cycle:     99
  WF centre and spread    1  ( -0.447968, -0.447968, -0.447968 )     3.06900927
  WF centre and spread    2  ( -0.447968, -0.909530, -0.909530 )     3.06901019
  WF centre and spread    3  ( -0.909531, -0.447968, -0.909530 )     3.06900912
  WF centre and spread    4  ( -0.909530, -0.909530, -0.447968 )     3.06901027
  WF centre and spread    5  (  1.136348,  1.136348,  1.136348 )     2.65457599
  WF centre and spread    6  (  1.136348,  0.221151,  0.221151 )     2.65457640
  WF centre and spread    7  (  0.221151,  1.136348,  0.221151 )     2.65457597
  WF centre and spread    8  (  0.221151,  0.221151,  1.136348 )     2.65457639
  Sum of centres and spreads ( -0.000000,  0.000001, -0.000000 )    22.89434359

     99    -0.131E-12     0.0000008526       22.8943435938       7.57  <-- CONV
        O_D=      0.3407854 O_OD=      6.7047157 O_TOT=     22.8943436 <-- SPRD
 Delta: O_D= -0.5781615E-09 O_OD=  0.5780274E-09 O_TOT= -0.1314504E-12 <-- DLTA
 ------------------------------------------------------------------------------
 Cycle:    100
  WF centre and spread    1  ( -0.447968, -0.447968, -0.447968 )     3.06900927
  WF centre and spread    2  ( -0.447968, -0.909530, -0.909530 )     3.06901019
  WF centre and spread    3  ( -0.909531, -0.447968, -0.909530 )     3.06900912
  WF centre and spread    4  ( -0.909530, -0.909530, -0.447968 )     3.06901027
  WF centre and spread    5  (  1.136348,  1.136348,  1.136348 )     2.65457599
  WF centre and spread    6  (  1.136348,  0.221151,  0.221151 )     2.65457640
  WF centre and spread    7  (  0.221151,  1.136348,  0.221151 )     2.65457597
  WF centre and spread    8  (  0.221151,  0.221151,  1.136348 )     2.65457638
  Sum of centres and spreads ( -0.000000,  0.000001, -0.000000 )    22.89434359

    100    -0.888E-13     0.0000008402       22.8943435938       7.60  <-- CONV
        O_D=      0.3407854 O_OD=      6.7047157 O_TOT=     22.8943436 <-- SPRD
 Delta: O_D= -0.7057173E-09 O_OD=  0.7056284E-09 O_TOT= -0.8881784E-13 <-- DLTA
 ------------------------------------------------------------------------------

 Writing checkpoint file silicon.chk... done

 Final State
  WF centre and spread    1  ( -0.447968, -0.447968, -0.447968 )     3.06900927
  WF centre and spread    2  ( -0.447968, -0.909530, -0.909530 )     3.06901019
  WF centre and spread    3  ( -0.909531, -0.447968, -0.909530 )     3.06900912
  WF centre and spread    4  ( -0.909530, -0.909530, -0.447968 )     3.06901027
  WF centre and spread    5  (  1.136348,  1.136348,  1.136348 )     2.65457599
  WF centre and spread    6  (  1.136348,  0.221151,  0.221151 )     2.65457640
  WF centre and spread    7  (  0.221151,  1.136348,  0.221151 )     2.65457597
  WF centre and spread    8  (  0.221151,  0.221151,  1.136348 )     2.65457638
  Sum of centres and spreads ( -0.000000,  0.000001, -0.000000 )    22.89434359

         Spreads (Ang^2)       Omega I      =    15.848842498
        ================       Omega D      =     0.340785415
                               Omega OD     =     6.704715681
    Final Spread (Ang^2)       Omega Total  =    22.894343594
 ------------------------------------------------------------------------------
 Time for wannierise            4.710 (sec)

 Writing checkpoint file silicon.chk... done

 *---------------------------------------------------------------------------*
 |                               PLOTTING                                    |
 *---------------------------------------------------------------------------*


 Calculating interpolated band-structure

 Time to calculate interpolated band structure       0.090 (sec)

 Time for plotting              0.130 (sec)
 Total Execution Time           7.740 (sec)

 *===========================================================================*
 |                             TIMING INFORMATION                            |
 *===========================================================================*
 |    Tag                                                Ncalls      Time (s)|
 |---------------------------------------------------------------------------|
 |kmesh: get                                        :         1         0.460|
 |overlap: read                                     :         1         0.480|
 |dis: main                                         :         1         1.930|
 |wann: main                                        :         1         4.710|
 |plot: main                                        :         1         0.130|
 *---------------------------------------------------------------------------*

 All done: wannier90 exiting
