
     Program PWSCF v.4.3.2      starts on 24Feb2012 at 15:49:32 

     This program is part of the open-source Quantum ESPRESSO suite
     for quantum simulation of materials; please cite
         "P. Giannozzi et al., J. Phys.:Condens. Matter 21 395502 (2009);
          URL http://www.quantum-espresso.org", 
     in publications or presentations arising from this work. More details at
     http://www.quantum-espresso.org/wiki/index.php/Citing_Quantum-ESPRESSO

     Parallel version (MPI & OpenMP), running on    24 processor cores
     Number of MPI processes:              24
     Threads/MPI process:                  1
     R & G space division:  proc/pool =   24

     EXPERIMENTAL VERSION WITH EXACT EXCHANGE

     Current dimensions of program PWSCF are:
     Max number of different atomic species (ntypx) = 10
     Max number of k-points (npk) =  40000
     Max angular momentum in pseudopotentials (lmaxx) =  3
     Reading input from ./in

     Atomic positions and unit cell read from directory:
     ./silicon.save/
     Message from routine read_ions :
     PP will be read from ./
 

     Subspace diagonalization in iterative solution of the eigenvalue problem:
     parallel, distributed-memory algorithm (size of sub-group:  3*  3 procs)

 
     Parallelization info
     --------------------
     sticks:   dense  smooth     PW     G-vecs:    dense   smooth      PW
     Min          15      15      5                  189      189      43
     Max          16      16      6                  192      192      47
     Sum         361     361    139                 4573     4573    1067
 


     bravais-lattice index     =            0
     lattice parameter (alat)  =      10.2612  a.u.
     unit-cell volume          =     270.1061 (a.u.)^3
     number of atoms/cell      =            2
     number of atomic types    =            1
     number of electrons       =         8.00
     number of Kohn-Sham states=           11
     kinetic-energy cutoff     =      25.0000  Ry
     charge density cutoff     =     100.0000  Ry
     Exchange-correlation      = PZ ( 1 1 0 0 0)
     EXX-fraction              =        0.00

     celldm(1)=  10.261200  celldm(2)=   0.000000  celldm(3)=   0.000000
     celldm(4)=   0.000000  celldm(5)=   0.000000  celldm(6)=   0.000000

     crystal axes: (cart. coord. in units of alat)
               a(1) = (   0.000000   0.500000   0.500000 )  
               a(2) = (   0.500000   0.000000   0.500000 )  
               a(3) = (   0.500000   0.500000   0.000000 )  

     reciprocal axes: (cart. coord. in units 2 pi/alat)
               b(1) = ( -1.000000  1.000000  1.000000 )  
               b(2) = (  1.000000 -1.000000  1.000000 )  
               b(3) = (  1.000000  1.000000 -1.000000 )  


     PseudoPot. # 1 for Si read from file:
     ./Si.UPF
     MD5 check sum: 8d0500bb3b5099e4a124109e930844dd
     Pseudo is Norm-conserving, Zval =  4.0
     Generated using "atomic" code by A. Dal Corso  (Quantum ESPRESSO distribution)
     Using radial grid of 1141 points,  2 beta functions with: 
                l(1) =   0
                l(2) =   1

     atomic species   valence    mass     pseudopotential
        Si             4.00    28.08600     Si( 1.00)

     48 Sym.Ops. (with inversion)


   Cartesian axes

     site n.     atom                  positions (alat units)
         1           Si  tau(   1) = (  -0.1250000  -0.1250000  -0.1250000  )
         2           Si  tau(   2) = (   0.1250000   0.1250000   0.1250000  )

     number of k points=  1000

     Number of k-points >= 100: set verbosity='high' to print them.

     Dense  grid:     4573 G-vectors     FFT dimensions: (  24,  24,  24)

     Largest allocated arrays     est. size (Mb)     dimensions
        Kohn-Sham Wavefunctions         0.00 Mb     (     27,   11)
        NL pseudopotentials             0.00 Mb     (     27,    8)
        Each V/rho on FFT grid          0.01 Mb     (    576)
        Each G-vector array             0.00 Mb     (    190)
        G-vector shells                 0.00 Mb     (     75)
     Largest temporary arrays     est. size (Mb)     dimensions
        Auxiliary wavefunctions         0.02 Mb     (     27,   44)
        Each subspace H/S matrix        0.00 Mb     (  14,  14)
        Each <psi_i|beta_j> matrix      0.00 Mb     (      8,   11)
     writing wfc files to a dedicated directory

     The potential is recalculated from file :
     ./silicon.save/charge-density.dat

     Starting wfc are random

     total cpu time spent up to now is        1.0 secs

     per-process dynamical memory:     2.3 Mb

     Band Structure Calculation
     Davidson diagonalization with overlap

     ethr =  1.25E-12,  avg # of iterations = 27.6

     total cpu time spent up to now is      133.2 secs

     End of band structure calculation

          k = 0.0210 0.0410 0.0530     band energies (ev):

    -5.8744   5.7800   5.9368   5.9876   8.5834   8.6212   8.6527   9.4494
    13.6751  13.7590  13.8066

          k = 0.1210 0.1410-0.0470     band energies (ev):

    -5.7356   4.7753   5.5153   5.8953   8.6543   8.7722   8.9858  10.3513
    13.1241  13.5960  14.3703

          k = 0.2210 0.2410-0.1470     band energies (ev):

    -5.3411   2.9580   5.0862   5.5567   8.3348   9.2144   9.5408  11.8685
    12.7506  13.5267  15.0846

          k = 0.3210 0.3410-0.2470     band energies (ev):

    -4.7182   1.1934   4.7768   5.1907   7.9862   9.4360   9.6639  13.0064
    13.3477  14.4662  14.8557

          k = 0.4210 0.4410-0.3470     band energies (ev):

    -3.9659  -0.2670   4.6227   4.9153   7.7585   9.3877   9.4810  13.6983
    14.6019  15.1947  16.3314

          k = 0.5210 0.5410-0.4470     band energies (ev):

    -3.5292  -0.9330   4.6230   4.7733   7.6847   9.3021   9.4271  13.6672
    15.9541  16.3974  17.1868

          k = 0.6210 0.6410-0.5470     band energies (ev):

    -4.0098  -0.1941   4.7281   4.8225   7.7708   9.3116   9.5791  13.6034
    14.5015  15.3657  16.0681

          k = 0.7210 0.7410-0.6470     band energies (ev):

    -4.7608   1.2929   4.9016   5.0910   8.0082   9.3584   9.7576  12.6681
    13.8321  14.1395  14.8330

          k = 0.8210 0.8410-0.7470     band energies (ev):

    -5.3714   3.0697   5.2106   5.4655   8.3520   9.1221   9.6149  11.7112
    12.8639  13.4652  15.0757

          k = 0.9210 0.9410-0.8470     band energies (ev):

    -5.7512   4.8916   5.6152   5.8072   8.5202   8.8257   9.0713  10.2252
    13.0995  13.6930  14.3129

          k = 0.1210-0.0590 0.1530     band energies (ev):

    -5.7147   4.6434   5.5019   5.8585   8.6183   8.7989   9.0570  10.4608
    13.0718  13.5771  14.4446

          k = 0.2210 0.0410 0.0530     band energies (ev):

    -5.6629   4.6574   5.3330   5.4663   8.2103   9.2925   9.4865  10.4250
    12.6646  13.9369  14.6505

          k = 0.3210 0.1410-0.0470     band energies (ev):

    -5.3528   3.4500   4.6211   5.2586   8.2246   9.5213  10.0973  10.8704
    12.7905  14.0824  15.5714

          k = 0.4210 0.2410-0.1470     band energies (ev):

    -4.8020   1.7694   4.1905   4.8934   8.4290   9.4742  10.4244  11.0838
    13.7857  15.0303  15.6687

          k = 0.5210 0.3410-0.2470     band energies (ev):

    -4.0717   0.2261   3.9244   4.5815   8.3490   9.3539  10.2984  12.1497
    14.8649  15.4610  16.7469

          k = 0.6210 0.4410-0.3470     band energies (ev):

    -3.4342  -0.7854   3.7525   4.4882   8.3028   9.2262  10.1144  13.6591
    14.7525  16.0873  17.2840

          k = 0.7210 0.5410-0.4470     band energies (ev):

    -3.6342  -0.4918   3.6806   4.6371   8.3883   9.2430  10.0734  13.5060
    14.6743  15.3716  17.0230

          k = 0.8210 0.6410-0.5470     band energies (ev):

    -4.3740   0.8023   3.7676   4.9634   8.5880   9.3480  10.1528  12.1071
    13.6184  15.4529  16.4495

          k = 0.9210 0.7410-0.6470     band energies (ev):

    -5.0465   2.4209   4.0751   5.3688   8.7882   9.2415  10.0508  11.3352
    12.7395  14.7464  15.8464

          k = 1.0210 0.8410-0.7470     band energies (ev):

    -5.5056   3.8821   4.8024   5.6588   8.5523   9.1423   9.5253  11.0701
    12.5979  13.8006  15.1442

          k = 0.2210-0.1590 0.2530     band energies (ev):

    -5.3005   2.8111   5.0861   5.5067   8.2943   9.2352   9.5852  11.9637
    12.7987  13.5354  15.0659

          k = 0.3210-0.0590 0.1530     band energies (ev):

    -5.3326   3.3346   4.6135   5.2846   8.3031   9.4386  10.0764  10.9444
    12.8255  14.0637  15.5825

          k = 0.4210 0.0410 0.0530     band energies (ev):

    -5.1070   3.1128   4.4188   4.4636   7.4782   9.7439  10.9073  11.0095
    13.3022  14.6192  16.3709

          k = 0.5210 0.1410-0.0470     band energies (ev):

    -4.6342   2.0206   3.7456   4.2047   7.5504   9.2844  11.1334  11.7505
    14.4443  15.3783  17.1446

          k = 0.6210 0.2410-0.1470     band energies (ev):

    -3.9522   0.6728   3.1540   3.9478   7.8094   9.8734  10.8510  11.8516
    15.7611  16.6498  17.1255

          k = 0.7210 0.3410-0.2470     band energies (ev):

    -3.2187  -0.4692   2.6779   3.9305   7.9046  10.4949  11.4372  11.6562
    15.3303  16.5986  17.6559

          k = 0.8210 0.4410-0.3470     band energies (ev):

    -3.0952  -0.6313   2.4002   4.1481   8.1512  10.2744  11.4605  13.3017
    13.5748  14.9692  17.7551

          k = 0.9210 0.5410-0.4470     band energies (ev):

    -3.7688   0.3567   2.4157   4.5450   8.5791  10.1008  11.2884  11.8766
    13.3866  15.4091  18.0400

          k = 1.0210 0.6410-0.5470     band energies (ev):

    -4.4848   1.4811   2.9823   5.0147   9.0271   9.5504  10.7545  11.1698
    12.7010  16.5508  16.8034

          k = 1.1210 0.7410-0.6470     band energies (ev):

    -5.0127   2.2030   4.2940   5.3157   8.6210   9.2522  10.0128  11.5326
    12.9405  14.6386  15.5589

          k = 0.3210-0.2590 0.3530     band energies (ev):

    -4.6618   1.0615   4.7884   5.1470   7.9532   9.4213   9.6697  13.0311
    13.5509  14.4704  14.8860

          k = 0.4210-0.1590 0.2530     band energies (ev):

    -4.7639   1.6370   4.2098   4.9110   8.4491   9.4136  10.3556  11.2438
    13.8067  15.0967  15.5617

          k = 0.5210-0.0590 0.1530     band energies (ev):

    -4.6153   1.9493   3.7186   4.2229   7.6317   9.3672  11.0207  11.6945
    14.4779  15.4460  17.0603

          k = 0.6210 0.0410 0.0530     band energies (ev):

    -4.2202   1.4134   3.6392   3.7354   6.8974   8.3182  12.6231  12.7131
    15.3100  15.7128  18.2402

          k = 0.7210 0.1410-0.0470     band energies (ev):

    -3.6014   0.4701   3.0945   3.4612   7.0954   8.0988  12.7334  13.5513
    16.2549  17.1969  17.7049

          k = 0.8210 0.2410-0.1470     band energies (ev):

    -2.8469  -0.4769   2.2661   3.4356   7.3146   9.2036  12.4105  13.5456
    15.6905  17.0254  17.9967

          k = 0.9210 0.3410-0.2470     band energies (ev):

    -2.4560  -0.8943   1.7085   3.6461   7.5662  10.9993  12.1034  13.2410
    13.6960  15.0851  19.8982

          k = 1.0210 0.4410-0.3470     band energies (ev):

    -3.0301  -0.3144   1.7380   4.0503   8.0282  11.2611  12.2254  12.5001
    13.3947  13.8072  19.4990

          k = 1.1210 0.5410-0.4470     band energies (ev):

    -3.7505   0.1917   2.6319   4.5574   8.5842   9.8727  11.0370  12.1821
    13.6947  15.3552  17.6854

          k = 1.2210 0.6410-0.5470     band energies (ev):

    -4.3164   0.5755   4.0380   4.9329   8.3846   9.3204   9.9953  12.4540
    13.9563  15.1814  16.2773

          k = 0.4210-0.3590 0.4530     band energies (ev):

    -3.9100  -0.3615   4.6427   4.8870   7.7365   9.3591   9.4867  13.6901
    14.7287  15.3589  16.4228

          k = 0.5210-0.2590 0.3530     band energies (ev):

    -4.0255   0.1129   3.9645   4.6060   8.3349   9.3051  10.2092  12.3784
    14.8171  15.4660  16.8287

          k = 0.6210-0.1590 0.2530     band energies (ev):

    -3.9204   0.5777   3.1554   3.9747   7.8578  10.0726  10.7245  11.7391
    15.8134  16.5177  17.2258

          k = 0.7210-0.0590 0.1530     band energies (ev):

    -3.5857   0.4449   3.0274   3.4754   7.1589   8.2126  12.6028  13.4742
    16.3036  17.3129  17.5661

          k = 0.8210 0.0410 0.0530     band energies (ev):

    -3.0293  -0.2985   3.1693   3.3020   6.6404   7.2879  14.4393  14.5157
    17.1682  17.3221  18.0398

          k = 0.9210 0.1410-0.0470     band energies (ev):

    -2.2963  -1.1139   2.7649   3.1245   6.9382   7.4501  14.4539  15.3182
    16.1576  17.1022  18.1538

          k = 1.0210 0.2410-0.1470     band energies (ev):

    -1.9646  -1.3691   1.9890   3.2977   7.1635   9.0198  13.6821  14.2045
    14.9795  15.7048  19.4299

          k = 1.1210 0.3410-0.2470     band energies (ev):

    -2.5752  -0.8314   1.8421   3.6791   7.6076  11.0194  11.7999  12.9458
    14.0126  15.4453  19.3610

          k = 1.2210 0.4410-0.3470     band energies (ev):

    -3.1386  -0.7176   2.6733   4.1995   8.2086   9.9939  11.1474  13.4171
    13.8756  15.3057  17.4263

          k = 1.3210 0.5410-0.4470     band energies (ev):

    -3.5996  -0.6408   3.9594   4.6627   8.2246   9.2163   9.8690  13.7447
    14.7234  15.7114  17.0274

          k = 0.5210-0.4590 0.5530     band energies (ev):

    -3.5372  -0.9245   4.6386   4.7744   7.6750   9.3012   9.4264  13.6612
    15.9012  16.4594  17.2353

          k = 0.6210-0.3590 0.4530     band energies (ev):

    -3.4257  -0.8261   3.8143   4.5199   8.2813   9.2024  10.0363  13.8138
    14.7519  16.0164  17.3170

          k = 0.7210-0.2590 0.3530     band energies (ev):

    -3.2013  -0.5337   2.7097   3.9709   7.9523  10.3840  11.5174  11.6977
    15.2009  16.4834  17.7006

          k = 0.8210-0.1590 0.2530     band energies (ev):

    -2.8308  -0.5060   2.2171   3.4672   7.3549   9.4229  12.2717  13.4154
    15.5438  16.8991  18.0911

          k = 0.9210-0.0590 0.1530     band energies (ev):

    -2.2879  -1.1122   2.6732   3.1411   6.9652   7.6059  14.3109  15.2275
    16.0033  17.0131  18.2310

          k = 1.0210 0.0410 0.0530     band energies (ev):

    -1.9038  -1.5799   3.0354   3.1775   6.6855   6.8716  15.7379  15.8136
    16.7075  16.7973  18.5765

          k = 1.1210 0.1410-0.0470     band energies (ev):

    -2.5898  -0.7863   2.8041   3.1634   6.9494   7.5339  14.0857  15.0001
    16.4635  17.4149  17.8457

          k = 1.2210 0.2410-0.1470     band energies (ev):

    -3.0951  -0.2242   2.4107   3.5099   7.3935   9.3026  12.0719  13.1770
    16.0528  17.2449  17.6810

          k = 1.3210 0.3410-0.2470     band energies (ev):

    -3.4062  -0.3456   2.9486   4.0332   8.0129  10.2169  11.3267  11.5495
    15.5228  16.6250  17.3756

          k = 1.4210 0.4410-0.3470     band energies (ev):

    -3.5413  -0.7267   4.0059   4.5924   8.2018   9.1941   9.9004  13.7003
    14.7654  16.1631  17.0996

          k = 0.6210-0.5590 0.6530     band energies (ev):

    -4.0710  -0.0934   4.7190   4.8724   7.7735   9.3309   9.5771  13.5963
    14.4280  15.1792  15.9493

          k = 0.7210-0.4590 0.5530     band energies (ev):

    -3.7013  -0.4189   3.7628   4.6736   8.3617   9.2421  10.0186  13.4248
    14.6374  15.3811  17.1625

          k = 0.8210-0.3590 0.4530     band energies (ev):

    -3.1591  -0.5854   2.4589   4.1998   8.2081  10.1733  11.3537  13.3349
    13.6866  14.8626  17.6528

          k = 0.9210-0.2590 0.3530     band energies (ev):

    -2.5095  -0.8509   1.7046   3.6922   7.6193  11.2181  12.0012  13.1126
    13.5680  14.9632  19.7889

          k = 1.0210-0.1590 0.2530     band energies (ev):

    -1.9948  -1.3299   1.9175   3.3305   7.2011   9.2449  13.5298  14.0726
    14.8270  15.5830  19.5402

          k = 1.1210-0.0590 0.1530     band energies (ev):

    -2.5791  -0.7890   2.7154   3.1797   6.9846   7.6809  13.9446  14.9147
    16.3062  17.3554  17.8918

          k = 1.2210 0.0410 0.0530     band energies (ev):

    -3.3028   0.0558   3.2403   3.3678   6.6633   7.4614  14.0553  14.1307
    16.8253  16.9376  18.3530

          k = 1.3210 0.1410-0.0470     band energies (ev):

    -3.8426   0.8035   3.2074   3.5826   7.1665   8.3088  12.3863  13.1653
    15.8765  16.7964  17.8408

          k = 1.4210 0.2410-0.1470     band energies (ev):

    -4.1545   0.9012   3.3793   4.1122   7.9436  10.0751  10.5430  11.5267
    15.3250  16.4898  16.6668

          k = 1.5210 0.3410-0.2470     band energies (ev):

    -4.2288   0.4073   4.1385   4.7630   8.3181   9.2834  10.0844  12.3602
    14.4981  15.1967  16.2701

          k = 0.7210-0.6590 0.7530     band energies (ev):

    -4.8184   1.4269   4.9043   5.1510   8.0219   9.3703   9.7410  12.6497
    13.6238  14.1113  14.8261

          k = 0.8210-0.5590 0.6530     band energies (ev):

    -4.4485   0.9212   3.8677   5.0013   8.5592   9.3456  10.1161  12.0623
    13.5705  15.4149  16.1859

          k = 0.9210-0.4590 0.5530     band energies (ev):

    -3.8563   0.4610   2.4972   4.6028   8.6384  10.0104  11.1923  11.8024
    13.3136  15.6115  17.9880

          k = 1.0210-0.3590 0.4530     band energies (ev):

    -3.1191  -0.2264   1.7814   4.1066   8.0926  11.1442  12.1281  12.4033
    13.6172  13.7221  19.3733

          k = 1.1210-0.2590 0.3530     band energies (ev):

    -2.6117  -0.8125   1.8457   3.7246   7.6604  11.2016  11.7371  12.8196
    13.8836  15.3215  19.2660

          k = 1.2210-0.1590 0.2530     band energies (ev):

    -3.0741  -0.2683   2.3721   3.5408   7.4352   9.5189  11.9359  13.0495
    15.9073  17.1766  17.7086

          k = 1.3210-0.0590 0.1530     band energies (ev):

    -3.8261   0.7702   3.1485   3.5964   7.2353   8.4153  12.2589  13.0916
    15.9198  16.9113  17.7045

          k = 1.4210 0.0410 0.0530     band energies (ev):

    -4.4327   1.7759   3.7795   3.8641   6.9961   8.5967  12.2491  12.3467
    14.8744  15.4505  17.8914

          k = 1.5210 0.1410-0.0470     band energies (ev):

    -4.8121   2.3308   3.9146   4.4106   7.6794   9.5699  10.8298  11.3876
    14.0620  15.0521  16.8189

          k = 1.6210 0.2410-0.1470     band energies (ev):

    -4.9421   2.0093   4.3908   5.1092   8.4915   9.2979  10.1777  11.3773
    13.4166  14.6378  15.4845

          k = 0.8210-0.7590 0.8530     band energies (ev):

    -5.4123   3.2182   5.2280   5.5253   8.3739   9.1032   9.5560  11.6301
    12.8268  13.4508  15.0591

          k = 0.9210-0.6590 0.7530     band energies (ev):

    -5.1069   2.5640   4.1870   5.4028   8.7514   9.2207   9.9971  11.3451
    12.7301  14.5518  15.7758

          k = 1.0210-0.5590 0.6530     band energies (ev):

    -4.5619   1.6101   3.0832   5.0678   9.0645   9.4703  10.6669  11.1514
    12.6737  16.4994  16.6042

          k = 1.1210-0.4590 0.5530     band energies (ev):

    -3.8358   0.2910   2.7156   4.6128   8.6366   9.7938  10.9473  12.1042
    13.6180  15.5313  17.6786

          k = 1.2210-0.3590 0.4530     band energies (ev):

    -3.1892  -0.6890   2.7350   4.2486   8.2602   9.8986  11.0451  13.6391
    13.7935  15.2006  17.3306

          k = 1.3210-0.2590 0.3530     band energies (ev):

    -3.3800  -0.4247   2.9851   4.0714   8.0572  10.1050  11.2130  11.7920
    15.3970  16.5552  17.3932

          k = 1.4210-0.1590 0.2530     band energies (ev):

    -4.1209   0.7956   3.3885   4.1377   7.9932  10.2694  10.4190  11.4212
    15.3704  16.3602  16.7620

          k = 1.5210-0.0590 0.1530     band energies (ev):

    -4.7928   2.2489   3.8941   4.4318   7.7622   9.6430  10.7267  11.3381
    14.0983  15.1016  16.7532

          k = 1.6210 0.0410 0.0530     band energies (ev):

    -5.2518   3.4554   4.6067   4.6586   7.6286   9.9930  10.6155  10.6687
    12.9480  14.4411  15.9707

          k = 1.7210 0.1410-0.0470     band energies (ev):

    -5.4614   3.7374   4.8205   5.4721   8.3715   9.2788   9.7833  11.0070
    12.6327  13.8964  15.2657

          k = 0.9210-0.8590 0.9530     band energies (ev):

    -5.7721   5.0243   5.6402   5.8528   8.5344   8.8074   8.9975  10.1104
    13.1738  13.7020  14.2327

          k = 1.0210-0.7590 0.8530     band energies (ev):

    -5.5470   4.0383   4.9093   5.6797   8.5213   9.1251   9.4649  10.9811
    12.6236  13.7741  15.0209

          k = 1.1210-0.6590 0.7530     band energies (ev):

    -5.0729   2.3439   4.4029   5.3445   8.5941   9.2262   9.9744  11.5357
    12.9226  14.4416  15.5112

          k = 1.2210-0.5590 0.6530     band energies (ev):

    -4.3892   0.6916   4.1339   4.9630   8.3522   9.3222   9.9738  12.4056
    13.9089  15.1380  16.0148

          k = 1.3210-0.4590 0.5530     band energies (ev):

    -3.6580  -0.5780   4.0375   4.6910   8.1843   9.2263   9.8265  13.6770
    14.6870  15.7055  17.1719

          k = 1.4210-0.3590 0.4530     band energies (ev):

    -3.5190  -0.7827   4.0633   4.6169   8.1562   9.1950   9.8311  13.8045
    14.8351  16.1419  17.0968

          k = 1.5210-0.2590 0.3530     band energies (ev):

    -4.1796   0.2886   4.1749   4.7811   8.2723   9.2715  10.0041  12.5831
    14.4854  15.1732  16.3516

          k = 1.6210-0.1590 0.2530     band energies (ev):

    -4.9033   1.8725   4.4084   5.1205   8.4759   9.2811  10.1207  11.5346
    13.4317  14.6939  15.3885

          k = 1.7210-0.0590 0.1530     band energies (ev):

    -5.4410   3.6162   4.8138   5.4934   8.4437   9.2040   9.7713  11.0956
    12.6558  13.8651  15.2946

          k = 1.8210 0.0410 0.0530     band energies (ev):

    -5.7361   4.9454   5.5196   5.6626   8.3490   9.0493   9.2169  10.1998
    12.9177  13.8476  14.3758

          k =-0.0790 0.1410 0.1530     band energies (ev):

    -5.6800   4.4155   5.4920   5.8261   8.5730   8.8643   9.0977  10.6540
    13.0506  13.4883  14.5570

          k = 0.0210 0.2410 0.0530     band energies (ev):

    -5.6280   4.5794   5.2092   5.3685   8.1115   9.4776   9.6148  10.4557
    12.5656  14.0103  14.7793

          k = 0.1210 0.3410-0.0470     band energies (ev):

    -5.3179   3.4211   4.6032   5.0781   8.0462   9.7310  10.2868  10.7014
    12.8771  14.1907  15.6944

          k = 0.2210 0.4410-0.1470     band energies (ev):

    -4.7671   1.7653   4.1682   4.7176   8.2962   9.6764  10.5946  10.8219
    14.0761  15.0449  15.8142

          k = 0.3210 0.5410-0.2470     band energies (ev):

    -4.0368   0.2350   3.8501   4.4495   8.2718   9.5302  10.4570  11.8563
    15.1269  15.6644  16.7630

          k = 0.4210 0.6410-0.3470     band energies (ev):

    -3.3993  -0.7711   3.6052   4.4271   8.2670   9.3805  10.2372  13.4487
    14.8102  16.1256  17.3887

          k = 0.5210 0.7410-0.4470     band energies (ev):

    -3.6010  -0.4754   3.4877   4.6278   8.4062   9.3717  10.1476  13.5642
    14.6002  15.1267  16.9533

          k = 0.6210 0.8410-0.5470     band energies (ev):

    -4.3411   0.8112   3.5591   4.9861   8.6623   9.4439  10.1725  12.1432
    13.3398  15.6003  16.7486

          k = 0.7210 0.9410-0.6470     band energies (ev):

    -5.0130   2.3925   3.8921   5.4054   8.9336   9.2457  10.0100  11.3822
    12.5475  14.9501  16.0025

          k = 0.8210 1.0410-0.7470     band energies (ev):

    -5.4713   3.7010   4.7649   5.6820   8.6670   9.0586   9.5093  11.2090
    12.5886  13.7795  15.2172

          k = 0.0210 0.0410 0.2530     band energies (ev):

    -5.6070   4.5432   5.1736   5.2674   8.0400   9.6019   9.7092  10.4410
    12.5155  14.0621  14.8562

          k = 0.1210 0.1410 0.1530     band energies (ev):

    -5.6436   4.1715   5.5971   5.7188   8.4500   8.9948   9.1250  10.8525
    13.1184  13.3243  14.6507

          k = 0.2210 0.2410 0.0530     band energies (ev):

    -5.4203   3.4684   4.6716   5.7293   8.8110   9.0558   9.3917  11.4285
    12.5052  13.8018  15.3122

          k = 0.3210 0.3410-0.0470     band energies (ev):

    -4.9483   2.2648   3.7040   5.4390   8.9670   9.4902   9.8258  11.6351
    12.2146  15.2340  16.1291

          k = 0.4210 0.4410-0.1470     band energies (ev):

    -4.2668   0.7293   3.3613   5.0047   8.6225   9.7814   9.9995  12.5228
    12.8934  15.6804  17.1268

          k = 0.5210 0.5410-0.2470     band energies (ev):

    -3.5342  -0.5166   3.3186   4.6231   8.3151   9.6904  10.0834  13.9332
    14.3557  14.8352  16.8983

          k = 0.6210 0.6410-0.3470     band energies (ev):

    -3.3898  -0.7284   3.4930   4.3809   8.1439   9.6735  10.2809  13.1243
    14.9744  16.2553  17.3693

          k = 0.7210 0.7410-0.4470     band energies (ev):

    -4.0512   0.3227   3.8427   4.3201   8.1313   9.8049  10.5767  11.5024
    15.3966  15.9379  16.4735

          k = 0.8210 0.8410-0.5470     band energies (ev):

    -4.7745   1.8576   4.2959   4.4743   8.1159   9.8982  10.5642  10.7573
    14.4488  14.7827  15.9576

          k = 0.9210 0.9410-0.6470     band energies (ev):

    -5.3120   3.4992   4.7130   4.8420   7.8443   9.9314  10.4308  10.5695
    12.8712  14.2838  15.7524

          k = 0.1210-0.0590 0.3530     band energies (ev):

    -5.2767   3.2927   4.5846   4.9957   8.0216   9.7688  10.3757  10.6649
    12.9886  14.2321  15.7827

          k = 0.2210 0.0410 0.2530     band energies (ev):

    -5.3996   3.4371   4.5728   5.7154   8.8671   9.0533   9.4226  11.4186
    12.4744  13.8744  15.3872

          k = 0.3210 0.1410 0.1530     band energies (ev):

    -5.2640   2.9075   4.9280   5.1376   8.3987   9.2164  10.0408  11.2337
    13.0974  13.8824  15.4153

          k = 0.4210 0.2410 0.0530     band energies (ev):

    -4.8757   2.2126   3.7414   5.0106   8.5568   9.5845  10.6162  10.7285
    13.2536  15.2625  16.3264

          k = 0.5210 0.3410-0.0470     band energies (ev):

    -4.2604   1.1419   2.8696   4.6254   9.1236   9.3782  10.6523  11.4171
    13.5223  16.5003  17.3295

          k = 0.6210 0.4410-0.1470     band energies (ev):

    -3.5094  -0.1103   2.6099   4.2064   8.8996   9.3688  11.5447  11.9387
    14.7898  14.9737  17.6544

          k = 0.7210 0.5410-0.2470     band energies (ev):

    -3.0573  -0.7527   2.6461   3.9608   8.5650   9.5355  11.6224  12.9784
    13.7326  16.2652  17.5972

          k = 0.8210 0.6410-0.3470     band energies (ev):

    -3.5434  -0.0618   2.8490   3.9877   8.3973   9.8502  11.1783  11.7251
    15.5439  15.8556  17.5807

          k = 0.9210 0.7410-0.4470     band energies (ev):

    -4.2941   1.2364   3.2096   4.2797   8.2588   9.9215  10.2585  11.7284
    14.4544  16.6845  16.7906

          k = 1.0210 0.8410-0.5470     band energies (ev):

    -4.9003   2.4884   3.9047   4.6173   7.8602   9.7628  10.5659  11.1801
    13.7477  14.9714  16.6612

          k = 0.2210-0.1590 0.4530     band energies (ev):

    -4.7082   1.6335   4.1675   4.6317   8.2583   9.7262  10.6257  10.8121
    14.2831  15.1154  15.7980

          k = 0.3210-0.0590 0.3530     band energies (ev):

    -4.9087   2.1507   3.6952   5.4015   8.9394   9.4706   9.9014  11.6290
    12.2947  15.3284  16.0997

          k = 0.4210 0.0410 0.2530     band energies (ev):

    -4.8561   2.1847   3.6476   5.0451   8.6623   9.5241  10.6393  10.7342
    13.1479  15.3835  16.3939

          k = 0.5210 0.1410 0.1530     band energies (ev):

    -4.5521   1.6593   3.8697   4.1673   7.7617   9.7132  10.8098  11.3367
    15.0370  15.2630  16.6099

          k = 0.6210 0.2410 0.0530     band energies (ev):

    -4.0134   0.9544   2.9873   3.8786   7.9859   9.2897  10.8838  12.5191
    15.0496  17.0113  17.2959

          k = 0.7210 0.3410-0.0470     band energies (ev):

    -3.2921   0.0502   2.3257   3.4300   8.6929   9.6566  10.4759  13.4460
    15.2379  15.6375  19.0521

          k = 0.8210 0.4410-0.1470     band energies (ev):

    -2.6383  -0.7374   2.0070   3.2264   8.9344   9.9654  11.3847  13.0981
    13.5852  17.0371  17.8770

          k = 0.9210 0.5410-0.2470     band energies (ev):

    -2.8670  -0.4670   1.9648   3.3939   9.2778   9.6920  11.1279  13.4128
    13.5477  15.7507  18.9953

          k = 1.0210 0.6410-0.3470     band energies (ev):

    -3.6105   0.3964   2.3646   3.8324   9.0815   9.7625  10.0982  12.8170
    14.7165  15.6330  18.8565

          k = 1.1210 0.7410-0.4470     band energies (ev):

    -4.2648   1.0741   3.3626   4.2719   8.1728  10.1528  10.2512  11.4754
    14.7540  16.4605  16.6557

          k = 0.3210-0.2590 0.5530     band energies (ev):

    -3.9698   0.1285   3.8299   4.4063   8.2302   9.5745  10.4566  11.9125
    15.1832  15.8412  16.8580

          k = 0.4210-0.1590 0.4530     band energies (ev):

    -4.2141   0.6103   3.3907   4.9690   8.5979   9.6961  10.0409  12.5619
    13.1025  15.6052  17.2191

          k = 0.5210-0.0590 0.3530     band energies (ev):

    -4.2246   1.0512   2.8568   4.6418   9.1553   9.3287  10.8030  11.3539
    13.5064  16.3955  17.4475

          k = 0.6210 0.0410 0.2530     band energies (ev):

    -3.9956   0.9335   2.9213   3.8888   8.1075   9.3359  10.7578  12.5594
    14.9422  16.9315  17.4415

          k = 0.7210 0.1410 0.1530     band energies (ev):

    -3.5349   0.3332   2.8409   3.6071   7.1824   8.6966  12.5564  12.7849
    16.9875  17.1787  17.4765

          k = 0.8210 0.2410 0.0530     band energies (ev):

    -2.8733  -0.4017   2.5109   3.0980   7.6334   8.4772  12.3803  14.4304
    15.6391  16.9853  18.2642

          k = 0.9210 0.3410-0.0470     band energies (ev):

    -2.1298  -1.1162   2.1330   2.6540   8.4706   9.1970  11.9495  13.3355
    15.5141  17.0696  18.2580

          k = 1.0210 0.4410-0.1470     band energies (ev):

    -2.1884  -1.0355   1.7527   2.9116   8.8040  10.8262  11.4838  11.7372
    14.9202  16.2144  19.0452

          k = 1.1210 0.5410-0.2470     band energies (ev):

    -2.8842  -0.5355   2.0800   3.4620   9.2832   9.4483  11.4807  13.1238
    13.5137  16.0923  18.4789

          k = 1.2210 0.6410-0.3470     band energies (ev):

    -3.5118  -0.2266   3.0163   4.0669   8.2504   9.8710  11.3482  11.5712
    15.4759  16.2143  17.3571

          k = 0.4210-0.3590 0.6530     band energies (ev):

    -3.3699  -0.8025   3.5665   4.4305   8.2419   9.4397  10.2241  13.5286
    14.7951  16.0189  17.2976

          k = 0.5210-0.2590 0.5530     band energies (ev):

    -3.4957  -0.5892   3.3651   4.6013   8.3087   9.6148  10.0993  13.9787
    14.5263  14.8234  16.8554

          k = 0.6210-0.1590 0.4530     band energies (ev):

    -3.4727  -0.1991   2.6434   4.2294   8.8076   9.4149  11.4485  12.1631
    14.8339  14.8473  17.5581

          k = 0.7210-0.0590 0.3530     band energies (ev):

    -3.2648   0.0002   2.2952   3.4509   8.7525   9.8228  10.3713  13.3663
    15.0906  15.6600  18.9337

          k = 0.8210 0.0410 0.2530     band energies (ev):

    -2.8591  -0.4087   2.4972   3.0424   7.7809   8.5081  12.2311  14.5010
    15.4788  16.8876  18.3942

          k = 0.9210 0.1410 0.1530     band energies (ev):

    -2.2722  -1.1034   2.3439   3.3348   6.8754   8.2106  14.2972  14.4840
    15.9306  16.1423  19.0156

          k = 1.0210 0.2410 0.0530     band energies (ev):

    -1.8451  -1.4984   2.3676   2.8770   7.5380   8.2392  13.7089  14.1056
    16.0034  16.5970  18.6365

          k = 1.1210 0.3410-0.0470     band energies (ev):

    -2.3817  -0.8651   2.1467   2.7580   8.4966   9.2520  11.6125  13.7254
    15.0924  17.0994  18.2162

          k = 1.2210 0.4410-0.1470     band energies (ev):

    -2.8159  -0.6212   2.1188   3.3918   9.0026   9.7035  11.4566  13.1616
    13.5006  16.6709  18.0454

          k = 1.3210 0.5410-0.2470     band energies (ev):

    -3.1382  -0.7572   2.7951   4.1326   8.4194   9.6113  11.2203  13.3959
    13.8202  15.8245  17.3910

          k = 0.5210-0.4590 0.7530     band energies (ev):

    -3.6482  -0.3928   3.4490   4.6614   8.4037   9.4462  10.1259  13.5132
    14.4523  15.0981  17.0141

          k = 0.6210-0.3590 0.6530     band energies (ev):

    -3.4330  -0.6823   3.5481   4.3801   8.1583   9.6197  10.2866  13.0374
    14.9858  16.4092  17.4452

          k = 0.7210-0.2590 0.5530     band energies (ev):

    -3.0851  -0.7490   2.7067   3.9944   8.4902   9.5847  11.5170  12.8717
    13.9762  16.2686  17.5871

          k = 0.8210-0.1590 0.4530     band energies (ev):

    -2.6475  -0.7521   2.0182   3.2681   8.9836   9.8519  11.6222  12.9710
    13.4630  17.0369  17.8362

          k = 0.9210-0.0590 0.3530     band energies (ev):

    -2.1271  -1.1133   2.0693   2.6829   8.5084   9.4150  11.8060  13.1875
    15.4201  17.0539  18.2546

          k = 1.0210 0.0410 0.2530     band energies (ev):

    -1.8301  -1.5018   2.3844   2.7845   7.7010   8.2576  13.5566  13.9441
    16.1006  16.6540  18.6001

          k = 1.1210 0.1410 0.1530     band energies (ev):

    -2.5511  -0.8021   2.4014   3.3670   6.9127   8.2668  13.9545  14.1051
    16.3050  16.5191  18.5864

          k = 1.2210 0.2410 0.0530     band energies (ev):

    -3.1326  -0.1080   2.5853   3.2168   7.6856   8.6021  12.0473  14.0343
    16.0068  16.6011  18.5532

          k = 1.3210 0.3410-0.0470     band energies (ev):

    -3.5156   0.2829   2.4112   3.6648   8.7703   9.8041  10.2253  13.0125
    15.1796  15.6165  18.8404

          k = 1.4210 0.4410-0.1470     band energies (ev):

    -3.6851   0.0472   2.7560   4.4318   8.7567   9.4909  11.1532  12.0871
    14.2949  15.2890  17.5419

          k = 0.6210-0.5590 0.8530     band energies (ev):

    -4.3956   0.9338   3.5335   5.0370   8.6825   9.5054  10.1352  12.1184
    13.1268  15.6629  16.6605

          k = 0.7210-0.4590 0.7530     band energies (ev):

    -4.1212   0.4332   3.8934   4.3500   8.1605   9.7630  10.5721  11.4491
    15.3611  15.7572  16.3536

          k = 0.8210-0.3590 0.6530     band energies (ev):

    -3.6245   0.0299   2.9312   4.0285   8.3406   9.9010  11.0928  11.6346
    15.6524  15.8404  17.6091

          k = 0.9210-0.2590 0.5530     band energies (ev):

    -2.9517  -0.3879   2.0110   3.4492   9.3308   9.5900  11.0251  13.3502
    13.7539  15.6539  18.9468

          k = 1.0210-0.1590 0.4530     band energies (ev):

    -2.2574  -0.9707   1.7427   2.9593   8.8541  10.8199  11.4858  11.7349
    14.7838  16.1219  19.1344

          k = 1.1210-0.0590 0.3530     band energies (ev):

    -2.3704  -0.8747   2.0906   2.7830   8.5377   9.4652  11.4723  13.5770
    15.0034  17.1219  18.1673

          k = 1.2210 0.0410 0.2530     band energies (ev):

    -3.1174  -0.1181   2.5595   3.1760   7.8272   8.6371  11.9013  14.1022
    15.8464  16.4994  18.6890

          k = 1.3210 0.1410 0.1530     band energies (ev):

    -3.7718   0.6240   3.0172   3.7018   7.2853   8.8694  12.1768  12.4647
    16.5878  16.8017  17.4243

          k = 1.4210 0.2410 0.0530     band energies (ev):

    -4.2194   1.2243   3.1245   4.1022   8.0914   9.5244  10.6022  12.1231
    14.6462  16.8489  17.0204

          k = 1.5210 0.3410-0.0470     band energies (ev):

    -4.4299   1.3719   3.0246   4.8658   9.1394   9.3246  10.8680  11.0510
    13.1193  16.4876  16.8894

          k = 0.7210-0.6590 0.9530     band energies (ev):

    -5.0531   2.5099   3.9017   5.4578   8.9785   9.2354   9.9204  11.4219
    12.4442  14.8607  16.0120

          k = 0.8210-0.5590 0.8530     band energies (ev):

    -4.8341   1.9915   4.3132   4.5569   8.1356   9.8506  10.5809  10.7227
    14.2399  14.7243  15.9538

          k = 0.9210-0.4590 0.7530     band energies (ev):

    -4.3710   1.3611   3.3067   4.3218   8.2029   9.8939  10.3020  11.6412
    14.4000  16.4746  16.7512

          k = 1.0210-0.3590 0.6530     band energies (ev):

    -3.6995   0.5046   2.4408   3.8903   8.9827   9.8126  10.0495  12.7065
    14.6442  15.8700  18.6737

          k = 1.1210-0.2590 0.5530     band energies (ev):

    -2.9620  -0.4674   2.1302   3.5150   9.2664   9.4215  11.3747  13.0099
    13.7727  15.9942  18.4394

          k = 1.2210-0.1590 0.4530     band energies (ev):

    -2.8111  -0.6568   2.1370   3.4308   9.0512   9.5903  11.6993  13.0419
    13.3695  16.7162  17.9566

          k = 1.3210-0.0590 0.3530     band energies (ev):

    -3.4859   0.2231   2.3857   3.6863   8.8352   9.8943  10.1941  12.9339
    15.1936  15.4741  18.7400

          k = 1.4210 0.0410 0.2530     band energies (ev):

    -4.2011   1.2011   3.0505   4.1223   8.2087   9.5721  10.4835  12.1544
    14.5376  16.9609  17.0192

          k = 1.5210 0.1410 0.1530     band energies (ev):

    -4.7282   1.9222   4.1295   4.3199   7.9044   9.9262  10.5280  11.0532
    14.5959  14.9247  16.3333

          k = 1.6210 0.2410 0.0530     band energies (ev):

    -5.0173   2.4739   3.9282   5.2366   8.6850   9.3816  10.3274  10.9659
    12.9351  14.8787  16.0970

          k = 0.8210-0.7590 1.0530     band energies (ev):

    -5.4921   3.7334   4.8623   5.7093   8.6820   9.0013   9.4534  11.2189
    12.6159  13.7149  15.1424

          k = 0.9210-0.6590 0.9530     band energies (ev):

    -5.3533   3.6319   4.7364   4.9227   7.8621   9.9138  10.3436  10.5800
    12.7655  14.2503  15.6460

          k = 1.0210-0.5590 0.8530     band energies (ev):

    -4.9610   2.6303   4.0042   4.6470   7.8214   9.7906  10.5825  11.0928
    13.6574  14.8256  16.5657

          k = 1.1210-0.4590 0.7530     band energies (ev):

    -4.3409   1.1961   3.4604   4.3063   8.1345  10.1134  10.2881  11.3994
    14.6957  16.3819  16.4688

          k = 1.2210-0.3590 0.6530     band energies (ev):

    -3.5881  -0.1416   3.0982   4.0988   8.2067   9.9137  11.2632  11.4846
    15.5808  16.1855  17.4117

          k = 1.3210-0.2590 0.5530     band energies (ev):

    -3.1498  -0.7727   2.8555   4.1575   8.3557   9.6553  11.1191  13.2901
    14.0556  15.8518  17.3824

          k = 1.4210-0.1590 0.4530     band energies (ev):

    -3.6436  -0.0505   2.7905   4.4468   8.6756   9.5355  11.0487  12.3197
    14.3375  15.1677  17.4456

          k = 1.5210-0.0590 0.3530     band energies (ev):

    -4.3930   1.2749   3.0137   4.8762   9.0758   9.3870  10.8750  11.1265
    13.0954  16.3979  17.0038

          k = 1.6210 0.0410 0.2530     band energies (ev):

    -4.9973   2.4453   3.8317   5.2675   8.7893   9.3372  10.3095  11.0023
    12.8339  14.9915  16.1700

          k = 1.7210 0.1410 0.1530     band energies (ev):

    -5.3717   3.1730   5.1071   5.3537   8.4520   9.0619   9.7900  11.4220
    12.8581  13.6695  15.2168

          k =-0.1790 0.2410 0.2530     band energies (ev):

    -5.2333   2.5672   5.0922   5.4589   8.2009   9.3193   9.5820  12.2103
    12.8330  13.5348  14.9960

          k =-0.0790 0.3410 0.1530     band energies (ev):

    -5.2642   3.1120   4.5963   5.1463   8.2566   9.5045  10.2205  10.8842
    13.0114  14.1345  15.6874

          k = 0.0210 0.4410 0.0530     band energies (ev):

    -5.0380   2.9781   4.3076   4.3970   7.3788   9.5859  11.0989  11.1943
    13.4475  14.7176  16.5703

          k = 0.1210 0.5410-0.0470     band energies (ev):

    -4.5649   1.9350   3.7406   4.0758   7.3810   9.0649  11.4532  11.9456
    14.6438  15.4134  17.3557

          k = 0.2210 0.6410-0.1470     band energies (ev):

    -3.8830   0.6367   3.0854   3.8605   7.6472   9.6125  11.2040  12.0302
    16.0538  16.8243  17.1287

          k = 0.3210 0.7410-0.2470     band energies (ev):

    -3.1492  -0.4754   2.5443   3.8825   7.7510  10.7983  11.2341  11.8076
    15.4291  16.5173  17.9050

          k = 0.4210 0.8410-0.3470     band energies (ev):

    -3.0319  -0.6241   2.2356   4.1240   8.0106  10.6269  11.5790  13.1036
    13.6038  14.7322  18.0205

          k = 0.5210 0.9410-0.4470     band energies (ev):

    -3.7085   0.3359   2.2666   4.5359   8.4574  10.4075  11.3641  11.9550
    13.1652  15.2301  18.2680

          k = 0.6210 1.0410-0.5470     band energies (ev):

    -4.4221   1.3379   2.9412   5.0136   8.9163   9.7140  10.6610  11.3952
    12.6261  16.4364  17.0121

          k = 0.7210 1.1410-0.6470     band energies (ev):

    -4.9475   1.9752   4.3188   5.3149   8.5470   9.2987   9.9336  11.7883
    12.9351  14.7438  15.4190

          k =-0.0790 0.1410 0.3530     band energies (ev):

    -5.2432   3.0994   4.5850   5.0364   8.1551   9.6292  10.3299  10.7688
    13.0874  14.1941  15.7662

          k = 0.0210 0.2410 0.2530     band energies (ev):

    -5.3653   3.3651   4.4272   5.7182   8.9867   9.1018   9.3536  11.4632
    12.3932  13.9819  15.4970

          k = 0.1210 0.3410 0.1530     band energies (ev):

    -5.2293   2.8944   4.7734   5.0594   8.3190   9.3799  10.1883  11.0255
    13.1735  14.0386  15.5769

          k = 0.2210 0.4410 0.0530     band energies (ev):

    -4.8407   2.1926   3.7471   4.8446   8.3430   9.7899  10.4269  10.9113
    13.5196  15.2788  16.4425

          k = 0.3210 0.5410-0.0470     band energies (ev):

    -4.2253   1.1236   2.8874   4.4723   8.8974   9.6214  10.3643  11.6508
    13.8345  16.5802  17.3296

          k = 0.4210 0.6410-0.1470     band energies (ev):

    -3.4740  -0.1130   2.5985   4.0728   9.0834   9.2025  11.5722  11.8434
    15.0201  15.1214  17.7279

          k = 0.5210 0.7410-0.2470     band energies (ev):

    -3.0234  -0.7466   2.5814   3.8763   8.8228   9.3050  11.8205  12.9936
    13.4738  16.4707  17.5959

          k = 0.6210 0.8410-0.3470     band energies (ev):

    -3.5129  -0.0560   2.7206   3.9758   8.6452   9.6414  11.2103  11.8800
    15.3667  15.5714  17.6918

          k = 0.7210 0.9410-0.4470     band energies (ev):

    -4.2631   1.2103   3.0635   4.3215   8.4647   9.9757  10.0863  11.7935
    14.2375  16.7392  16.9968

          k = 0.8210 1.0410-0.5470     band energies (ev):

    -4.8679   2.3578   3.8521   4.6642   8.0027   9.8415  10.4383  11.1181
    13.7483  15.0781  16.5997

          k = 0.0210 0.0410 0.4530     band energies (ev):

    -4.9965   2.9009   4.2795   4.3264   7.3086   9.4823  11.2403  11.3026
    13.5279  14.7761  16.6915

          k = 0.1210 0.1410 0.3530     band energies (ev):

    -5.2084   2.8857   4.7536   4.9484   8.2406   9.4972  10.2873  10.8989
    13.2479  14.1080  15.6663

          k = 0.2210 0.2410 0.2530     band energies (ev):

    -5.1636   2.3122   5.2186   5.3413   8.0612   9.4198   9.5452  12.5327
    13.0536  13.3222  14.8701

          k = 0.3210 0.3410 0.1530     band energies (ev):

    -4.8648   1.7361   4.2603   5.3461   8.4798   9.4507   9.7619  12.2482
    12.6628  14.9721  15.3345

          k = 0.4210 0.4410 0.0530     band energies (ev):

    -4.3288   1.1533   2.8531   5.0158   8.7526  10.1019  10.4194  11.8535
    12.3449  16.3083  17.3200

          k = 0.5210 0.5410-0.0470     band energies (ev):

    -3.6104   0.2423   2.1288   4.5303   8.2703  10.9178  11.2413  12.3578
    12.7984  14.9271  18.4739

          k = 0.6210 0.6410-0.1470     band energies (ev):

    -2.9515  -0.6555   2.1075   4.1136   7.8174  11.1867  11.4716  12.7943
    14.0266  14.3481  18.2674

          k = 0.7210 0.7410-0.2470     band energies (ev):

    -3.1235  -0.4394   2.4645   3.8603   7.5605  10.7514  11.4763  11.7804
    15.8142  16.3179  18.2734

          k = 0.8210 0.8410-0.3470     band energies (ev):

    -3.8653   0.6695   3.0840   3.8080   7.4555   9.3096  11.6794  12.0827
    16.4308  16.7533  17.1087

          k = 0.9210 0.9410-0.4470     band energies (ev):

    -4.5371   1.9277   3.8141   3.9680   7.1837   8.8681  11.8410  12.0452
    14.7479  15.3331  17.5462

          k = 0.1210-0.0590 0.5530     band energies (ev):

    -4.5046   1.8201   3.7018   4.0207   7.3630   9.0104  11.5362  12.0036
    14.8135  15.4931  17.4020

          k = 0.2210 0.0410 0.4530     band energies (ev):

    -4.8000   2.1500   3.6625   4.7830   8.3102   9.8407  10.3433  11.0403
    13.5784  15.4059  16.5742

          k = 0.3210 0.1410 0.3530     band energies (ev):

    -4.8444   1.7375   4.1347   5.3331   8.5654   9.4460   9.8154  12.0992
    12.6698  15.1225  15.4632

          k = 0.4210 0.2410 0.2530     band energies (ev):

    -4.6375   1.1782   4.6422   4.7326   8.2797   9.3018  10.1195  11.8496
    14.4857  14.6649  15.1675

          k = 0.5210 0.3410 0.1530     band energies (ev):

    -4.1908   0.7012   3.3734   4.6130   8.6993   9.3937  10.8126  11.3671
    14.2255  15.8741  17.1081

          k = 0.6210 0.4410 0.0530     band energies (ev):

    -3.5383   0.2015   2.1920   4.1511   8.8694   9.8824  11.1717  12.2349
    14.0901  14.9966  18.5727

          k = 0.7210 0.5410-0.0470     band energies (ev):

    -2.8020  -0.5301   1.7452   3.6737   8.3380  10.8365  11.9169  12.7611
    13.3383  14.8317  19.5742

          k = 0.8210 0.6410-0.1470     band energies (ev):

    -2.5872  -0.7797   1.9584   3.3765   7.9722  10.5753  11.3249  13.4862
    13.9177  16.5803  18.3836

          k = 0.9210 0.7410-0.2470     band energies (ev):

    -3.2532   0.0096   2.5446   3.3527   7.7719   9.0100  11.6377  13.5898
    16.0048  16.4791  18.4969

          k = 1.0210 0.8410-0.3470     band energies (ev):

    -3.9723   0.9909   3.2316   3.6562   7.3310   8.4898  11.9941  13.0135
    15.5001  16.7484  17.7344

          k = 0.2210-0.1590 0.6530     band energies (ev):

    -3.8095   0.5270   3.0287   3.8417   7.6055   9.6541  11.2883  12.0200
    16.2877  16.7944  17.2327

          k = 0.3210-0.0590 0.5530     band energies (ev):

    -4.1684   1.0249   2.8812   4.3990   8.8326   9.6796  10.3462  11.7197
    14.0105  16.5228  17.4475

          k = 0.4210 0.0410 0.4530     band energies (ev):

    -4.2903   1.1266   2.7662   4.9791   8.7469  10.1088  10.5704  11.7492
    12.3930  16.3318  17.4479

          k = 0.5210 0.1410 0.3530     band energies (ev):

    -4.1717   0.7040   3.2592   4.6360   8.8159   9.3317  10.8528  11.3946
    14.0607  15.9240  17.2813

          k = 0.6210 0.2410 0.2530     band energies (ev):

    -3.8199   0.2317   3.3044   4.0771   7.8524  10.5444  10.8032  11.1311
    16.0115  16.5742  17.0579

          k = 0.7210 0.3410 0.1530     band energies (ev):

    -3.2605  -0.1878   2.4881   3.6413   8.1859  10.3190  10.6783  12.5825
    15.2791  16.4672  17.8795

          k = 0.8210 0.4410 0.0530     band energies (ev):

    -2.5542  -0.6919   1.9164   2.9685   9.5089   9.8800  10.6285  13.0231
    14.4161  16.4041  18.8131

          k = 0.9210 0.5410-0.0470     band energies (ev):

    -1.9864  -1.2019   1.8943   2.5532   9.4337  10.4451  11.0397  11.6420
    15.5155  16.9000  18.4285

          k = 1.0210 0.6410-0.1470     band energies (ev):

    -2.5064  -0.7257   2.1358   2.7709   8.8443   9.3036  11.1911  13.7357
    14.9465  16.7972  18.5604

          k = 1.1210 0.7410-0.2470     band energies (ev):

    -3.2354  -0.0585   2.5018   3.4755   7.6240   9.3267  11.6494  13.2108
    16.0217  16.8389  18.0245

          k = 0.3210-0.2590 0.7530     band energies (ev):

    -3.0904  -0.5397   2.4859   3.8957   7.7144  10.8879  11.3277  11.7806
    15.3553  16.3040  18.1102

          k = 0.4210-0.1590 0.6530     band energies (ev):

    -3.4161  -0.2013   2.6162   4.0223   9.0090   9.2437  11.6383  11.8596
    14.9194  15.3660  17.6733

          k = 0.5210-0.0590 0.5530     band energies (ev):

    -3.5621   0.1629   2.1333   4.4943   8.2539  10.8513  11.2924  12.3995
    12.9772  14.8048  18.4004

          k = 0.6210 0.0410 0.4530     band energies (ev):

    -3.5043   0.1796   2.1208   4.1610   8.7633  10.0645  11.2368  12.2700
    13.9723  14.8646  18.7225

          k = 0.7210 0.1410 0.3530     band energies (ev):

    -3.2431  -0.1882   2.4418   3.6094   8.3383  10.2268  10.6502  12.6910
    15.1253  16.3132  18.0142

          k = 0.8210 0.2410 0.2530     band energies (ev):

    -2.8040  -0.6127   2.1115   3.6918   7.3244  10.1903  12.3185  12.4794
    15.6281  15.8784  18.9280

          k = 0.9210 0.3410 0.1530     band energies (ev):

    -2.2535  -1.0354   1.8355   3.1843   7.8667  10.1096  12.0056  13.4155
    14.4579  16.2675  18.8785

          k = 1.0210 0.4410 0.0530     band energies (ev):

    -1.8208  -1.3585   1.9751   2.4179   9.4246  10.2160  11.2599  11.5974
    15.9451  16.7918  18.5703

          k = 1.1210 0.5410-0.0470     band energies (ev):

    -2.1401  -1.0714   1.8156   2.7597   9.1563  10.5791  11.2640  11.7165
    15.0726  16.6470  18.6283

          k = 1.2210 0.6410-0.1470     band energies (ev):

    -2.6376  -0.7862   1.9488   3.5784   7.8204  10.9122  11.4350  13.0363
    13.9639  16.0547  18.7936

          k = 0.4210-0.3590 0.8530     band energies (ev):

    -3.0588  -0.5729   2.1917   4.1598   7.9927  10.7350  11.5380  13.1931
    13.5593  14.4804  18.0776

          k = 0.5210-0.2590 0.7530     band energies (ev):

    -3.0317  -0.7377   2.5903   3.8718   8.9005   9.2222  11.8254  12.9113
    13.5539  16.5042  17.5693

          k = 0.6210-0.1590 0.6530     band energies (ev):

    -2.9374  -0.6920   2.1544   4.0905   7.8172  11.0786  11.5145  12.6820
    14.0962  14.6012  18.2071

          k = 0.7210-0.0590 0.5530     band energies (ev):

    -2.7756  -0.5746   1.7503   3.6953   8.2411  10.8982  12.1281  12.6432
    13.2553  14.8638  19.4732

          k = 0.8210 0.0410 0.4530     band energies (ev):

    -2.5274  -0.7103   1.8836   2.9615   9.6208   9.8512  10.6588  12.8718
    14.4863  16.2950  18.9554

          k = 0.9210 0.1410 0.3530     band energies (ev):

    -2.2348  -1.0425   1.8483   3.0969   8.0271  10.1226  11.8533  13.2532
    14.5904  16.4336  18.7336

          k = 1.0210 0.2410 0.2530     band energies (ev):

    -2.1551  -1.1633   1.7087   3.5792   7.1601  10.0283  13.4244  13.8470
    14.2503  14.6103  20.3733

          k = 1.1210 0.3410 0.1530     band energies (ev):

    -2.4457  -0.8677   1.9231   3.2353   7.9054  10.1493  11.6760  13.7522
    14.1299  16.6293  18.4538

          k = 1.2210 0.4410 0.0530     band energies (ev):

    -2.7696  -0.5035   1.9374   3.1945   9.5089   9.7024  10.6846  13.4274
    13.9625  15.9394  19.1538

          k = 1.3210 0.5410-0.0470     band energies (ev):

    -2.9811  -0.3774   1.7861   3.9129   8.2093  10.9045  12.0490  12.7046
    13.3355  14.3147  19.3020

          k = 0.5210-0.4590 0.9530     band energies (ev):

    -3.7594   0.4202   2.2631   4.5855   8.4542  10.4849  11.3033  11.9328
    12.9730  15.3455  18.3275

          k = 0.6210-0.3590 0.8530     band energies (ev):

    -3.5756   0.0383   2.7153   4.0216   8.7336   9.5739  11.1453  11.8718
    15.3163  15.4687  17.7529

          k = 0.7210-0.2590 0.7530     band energies (ev):

    -3.1910  -0.3648   2.5295   3.8558   7.5794  10.6687  11.3802  11.8082
    15.8914  16.5439  18.0337

          k = 0.8210-0.1590 0.6530     band energies (ev):

    -2.6480  -0.7297   2.0067   3.4137   7.8928  10.4851  11.3561  13.3935
    14.1624  16.6532  18.2849

          k = 0.9210-0.0590 0.5530     band energies (ev):

    -2.0227  -1.1729   1.8957   2.5892   9.3150  10.4040  11.0136  11.8702
    15.4193  16.9512  18.3633

          k = 1.0210 0.0410 0.4530     band energies (ev):

    -1.7811  -1.3903   2.0058   2.3507   9.6334  10.2268  11.1367  11.4587
    16.0576  16.7826  18.5992

          k = 1.1210 0.1410 0.3530     band energies (ev):

    -2.4283  -0.8728   1.9291   3.1543   8.0648  10.1608  11.5272  13.6226
    14.2254  16.7884  18.3173

          k = 1.2210 0.2410 0.2530     band energies (ev):

    -3.0236  -0.4360   2.3134   3.7510   7.4095  10.2768  11.9524  12.1630
    15.9364  16.2872  18.4385

          k = 1.3210 0.3410 0.1530     band energies (ev):

    -3.4720  -0.0072   2.6719   3.8105   8.2917  10.1551  10.7003  12.2008
    15.6045  15.9958  17.8413

          k = 1.4210 0.4410 0.0530     band energies (ev):

    -3.7244   0.3931   2.3027   4.3964   8.7469   9.9760  11.3401  11.7997
    13.6133  15.3812  18.3494

          k = 0.6210-0.5590 1.0530     band energies (ev):

    -4.4613   1.3665   3.0291   5.0622   8.8938   9.7238  10.5107  11.5154
    12.5625  16.3626  16.8841

          k = 0.7210-0.4590 0.9530     band energies (ev):

    -4.3211   1.3124   3.0743   4.3943   8.5220   9.9497  10.0716  11.7275
    14.0670  16.7622  16.8964

          k = 0.8210-0.3590 0.8530     band energies (ev):

    -3.9402   0.7820   3.1538   3.8261   7.4768   9.2758  11.6068  12.0826
    16.2069  16.6561  17.1217

          k = 0.9210-0.2590 0.7530     band energies (ev):

    -3.3411   0.1119   2.6163   3.4010   7.7029   8.9455  11.6875  13.4804
    16.2567  16.3981  18.5018

          k = 1.0210-0.1590 0.6530     band energies (ev):

    -2.5966  -0.6401   2.1762   2.8270   8.7297   9.2147  11.2415  14.0015
    14.8253  16.7304  18.6209

          k = 1.1210-0.0590 0.5530     band energies (ev):

    -2.1563  -1.0641   1.8192   2.7930   9.0380  10.5883  11.2111  11.9218
    14.9831  16.6980  18.5558

          k = 1.2210 0.0410 0.4530     band energies (ev):

    -2.7413  -0.5228   1.8938   3.1958   9.4538   9.8300  10.7292  13.2753
    14.0271  15.8269  19.3228

          k = 1.3210 0.1410 0.3530     band energies (ev):

    -3.4541  -0.0066   2.6077   3.7952   8.4414  10.0292  10.7139  12.2988
    15.4727  15.8336  17.9375

          k = 1.4210 0.2410 0.2530     band energies (ev):

    -4.0129   0.4167   3.6024   4.1890   7.9881  10.2125  10.8913  10.9731
    15.7760  16.1322  16.5857

          k = 1.5210 0.3410 0.1530     band energies (ev):

    -4.3562   0.9037   3.5591   4.8327   8.7259   9.3214  10.5001  11.5859
    13.7852  15.7384  16.6401

          k = 0.7210-0.6590 1.1530     band energies (ev):

    -4.9680   1.9751   4.4420   5.3378   8.4624   9.3126   9.8620  11.9447
    12.9185  14.5926  15.2962

          k = 0.8210-0.5590 1.0530     band energies (ev):

    -4.9089   2.4068   3.9340   4.7211   8.0463   9.8800  10.4178  10.9911
    13.6875  14.9633  16.4677

          k = 0.9210-0.4590 0.9530     band energies (ev):

    -4.5976   2.0458   3.8647   4.0137   7.1917   8.9290  11.7617  11.9815
    14.5794  15.2596  17.4741

          k = 1.0210-0.3590 0.8530     band energies (ev):

    -4.0499   1.1103   3.3122   3.6981   7.2752   8.4966  12.0222  12.9089
    15.4222  16.5121  17.8305

          k = 1.1210-0.2590 0.7530     band energies (ev):

    -3.3212   0.0405   2.5744   3.5156   7.5716   9.2542  11.6961  13.1051
    16.2684  16.7588  18.0712

          k = 1.2210-0.1590 0.6530     band energies (ev):

    -2.6837  -0.7533   1.9982   3.6066   7.7535  10.8476  11.4393  12.9299
    14.2216  16.1286  18.6978

          k = 1.3210-0.0590 0.5530     band energies (ev):

    -2.9483  -0.4312   1.7914   3.9270   8.1242  10.9704  12.2569  12.6164
    13.2198  14.3433  19.2054

          k = 1.4210 0.0410 0.4530     band energies (ev):

    -3.6891   0.3706   2.2265   4.4017   8.6552  10.1513  11.4095  11.8264
    13.4951  15.2623  18.4868

          k = 1.5210 0.1410 0.3530     band energies (ev):

    -4.3366   0.9068   3.4387   4.8554   8.8031   9.3187  10.5256  11.6101
    13.6202  15.8167  16.8146

          k = 1.6210 0.2410 0.2530     band energies (ev):

    -4.7738   1.4009   4.8044   4.9520   8.1988   9.2780   9.9475  12.1284
    14.0892  14.2719  14.9852

          k =-0.2790 0.3410 0.3530     band energies (ev):

    -4.5697   0.8445   4.8114   5.1150   7.8692   9.4464   9.6102  13.3614
    13.5968  14.4560  14.9620

          k =-0.1790 0.4410 0.2530     band energies (ev):

    -4.6669   1.4173   4.2225   4.7712   8.3782   9.4718  10.4057  11.2447
    14.1538  15.2159  15.5198

          k =-0.0790 0.5410 0.1530     band energies (ev):

    -4.5153   1.7533   3.6685   4.1175   7.5906   9.2987  11.1456  11.7763
    14.7741  15.5867  17.0974

          k = 0.0210 0.6410 0.0530     band energies (ev):

    -4.1188   1.2508   3.6022   3.6719   6.8268   8.1682  12.8158  12.9504
    15.4629  15.8372  18.4367

          k = 0.1210 0.7410-0.0470     band energies (ev):

    -3.4994   0.3312   3.1132   3.4240   6.9608   7.9015  13.1126  13.7403
    16.4677  17.1759  17.8311

          k = 0.2210 0.8410-0.1470     band energies (ev):

    -2.7443  -0.5807   2.2558   3.4211   7.1825   8.9775  12.8177  13.7164
    15.7771  16.8364  18.2266

          k = 0.3210 0.9410-0.2470     band energies (ev):

    -2.3748  -0.9556   1.6689   3.6428   7.4402  10.7923  12.4724  13.3758
    13.7937  14.8741  20.1544

          k = 0.4210 1.0410-0.3470     band energies (ev):

    -2.9672  -0.3995   1.7313   4.0526   7.9130  11.4058  12.3465  12.5726
    13.2052  13.8183  19.3723

          k = 0.5210 1.1410-0.4470     band energies (ev):

    -3.6766   0.0269   2.6835   4.5618   8.4766   9.9500  10.8647  12.5665
    13.7615  15.1543  17.5298

          k = 0.6210 1.2410-0.5470     band energies (ev):

    -4.2316   0.3738   4.0959   4.9411   8.2859   9.3471   9.8657  12.8210
    13.9913  15.0877  16.4126

          k =-0.1790 0.2410 0.4530     band energies (ev):

    -4.6460   1.4178   4.2025   4.6668   8.3178   9.5855  10.5072  11.0744
    14.3391  15.2215  15.6108

          k =-0.0790 0.3410 0.3530     band energies (ev):

    -4.8433   1.9511   3.6948   5.3678   8.8599   9.5830   9.8469  11.8190
    12.2721  15.4751  16.0125

          k = 0.0210 0.4410 0.2530     band energies (ev):

    -4.7887   2.1021   3.5205   4.9388   8.6164   9.6253  10.5133  10.8925
    13.2639  15.5943  16.5786

          k = 0.1210 0.5410 0.1530     band energies (ev):

    -4.4834   1.6120   3.7317   4.0974   7.6524   9.4858  11.0491  11.5647
    15.0810  15.4898  16.8573

          k = 0.2210 0.6410 0.0530     band energies (ev):

    -3.9439   0.8861   3.0088   3.7608   7.7820   9.0350  11.2385  12.7281
    15.3220  17.1461  17.2811

          k = 0.3210 0.7410-0.0470     band energies (ev):

    -3.2220  -0.0132   2.3639   3.3190   8.4678   9.4070  10.8251  13.6644
    15.3060  15.9280  19.0217

          k = 0.4210 0.8410-0.1470     band energies (ev):

    -2.5701  -0.7754   1.9682   3.1745   8.7099  10.2940  11.1622  13.1502
    13.7861  17.0766  17.9081

          k = 0.5210 0.9410-0.2470     band energies (ev):

    -2.8157  -0.4931   1.8750   3.3983   9.0717  10.0277  11.1983  13.2063
    13.6328  15.5324  19.3186

          k = 0.6210 1.0410-0.3470     band energies (ev):

    -3.5582   0.3011   2.3130   3.8655   9.2235   9.5876  10.3421  12.7234
    14.6915  15.4014  18.7720

          k = 0.7210 1.1410-0.4470     band energies (ev):

    -4.2070   0.8932   3.3792   4.3123   8.2588  10.0302  10.4905  11.3111
    14.8110  16.2547  16.8141

          k =-0.0790 0.1410 0.5530     band energies (ev):

    -4.4739   1.7103   3.6543   4.0451   7.4924   9.1607  11.3413  11.8900
    14.9102  15.5983  17.2284

          k = 0.0210 0.2410 0.4530     band energies (ev):

    -4.7677   2.0880   3.5290   4.8413   8.4794   9.7525  10.3764  11.0291
    13.4285  15.6004  16.6435

          k = 0.1210 0.3410 0.3530     band energies (ev):

    -4.8108   1.7373   3.9261   5.3370   8.6795   9.5441   9.7959  12.0857
    12.4568  15.3603  15.6790

          k = 0.2210 0.4410 0.2530     band energies (ev):

    -4.6030   1.1851   4.4457   4.6839   8.3163   9.3889  10.2690  11.5596
    14.5085  14.9834  15.3267

          k = 0.3210 0.5410 0.1530     band energies (ev):

    -4.1556   0.7000   3.3541   4.4653   8.5313   9.6099  10.9359  11.1508
    14.5524  15.9896  17.1094

          k = 0.4210 0.6410 0.0530     band energies (ev):

    -3.5028   0.1848   2.2136   4.0030   9.1273   9.6299  10.8799  12.4791
    14.4154  15.0319  18.6505

          k = 0.5210 0.7410-0.0470     band energies (ev):

    -2.7661  -0.5474   1.7707   3.5250   8.5997  10.5826  11.6266  12.8213
    13.5493  15.1533  19.6083

          k = 0.6210 0.8410-0.1470     band energies (ev):

    -2.5572  -0.7864   1.9576   3.2502   8.2358  10.5476  11.1261  13.5318
    13.8150  16.8518  18.1496

          k = 0.7210 0.9410-0.2470     band energies (ev):

    -3.2268  -0.0065   2.4932   3.2921   8.0162   9.0559  11.3984  13.7312
    15.7408  16.2699  18.7536

          k = 0.8210 1.0410-0.3470     band energies (ev):

    -3.9439   0.9305   3.1432   3.6751   7.4617   8.6474  11.7808  12.9320
    15.5153  16.9493  17.5283

          k = 0.0210 0.0410 0.6530     band energies (ev):

    -4.0579   1.1544   3.5891   3.6372   6.7738   8.0738  12.9857  13.0613
    15.5603  15.8872  18.5724

          k = 0.1210 0.1410 0.5530     band energies (ev):

    -4.4421   1.5784   3.6857   4.0381   7.5690   9.3447  11.2321  11.6796
    15.2182  15.5086  16.9977

          k = 0.2210 0.2410 0.4530     band energies (ev):

    -4.5822   1.1880   4.4120   4.5813   8.2941   9.4767  10.3637  11.3849
    14.6988  14.9976  15.4149

          k = 0.3210 0.3410 0.3530     band energies (ev):

    -4.4755   0.6206   4.9428   5.0338   7.7399   9.4621   9.5438  13.6499
    13.9509  14.2408  14.9881

          k = 0.4210 0.4410 0.2530     band energies (ev):

    -4.1323   0.1740   4.0740   4.9717   8.2107   9.4972   9.6449  13.3780
    13.7595  15.0411  16.6921

          k = 0.5210 0.5410 0.1530     band energies (ev):

    -3.5778  -0.1351   2.6619   4.5659   8.3103  10.3042  10.5828  13.1920
    13.5410  14.8719  17.4464

          k = 0.6210 0.6410 0.0530     band energies (ev):

    -2.8762  -0.5080   1.7075   4.0594   7.7338  11.8233  12.0737  12.8031
    13.2820  13.6090  19.3655

          k = 0.7210 0.7410-0.0470     band energies (ev):

    -2.2951  -1.0303   1.6684   3.6564   7.2626  10.4795  13.0219  13.3945
    14.1911  14.5485  20.3780

          k = 0.8210 0.8410-0.1470     band energies (ev):

    -2.6954  -0.6372   2.3074   3.4371   7.0124   8.6818  13.4305  13.6729
    16.2225  16.5439  18.5094

          k = 0.9210 0.9410-0.2470     band energies (ev):

    -3.4492   0.2583   3.1808   3.4298   6.7891   7.7025  13.6167  13.7805
    16.7003  16.8833  18.2220

          k = 0.1210-0.0590 0.7530     band energies (ev):

    -3.4223   0.2276   3.0526   3.4183   6.9480   7.8902  13.2148  13.7738
    16.6499  17.2770  17.7613

          k = 0.2210 0.0410 0.6530     band energies (ev):

    -3.8843   0.8205   2.9687   3.6974   7.7747   8.9274  11.3266  12.8993
    15.3775  17.1280  17.4157

          k = 0.3210 0.1410 0.5530     band energies (ev):

    -4.1153   0.6994   3.2371   4.4011   8.5408   9.6719  10.8568  11.2532
    14.5824  16.0978  17.2810

          k = 0.4210 0.2410 0.4530     band energies (ev):

    -4.1120   0.1831   3.9469   4.9489   8.2930   9.4778   9.7359  13.2360
    13.7722  15.1136  16.8804

          k = 0.5210 0.3410 0.3530     band energies (ev):

    -3.8848  -0.2595   4.3436   4.5905   8.0992   9.2536   9.8814  13.1090
    14.6356  16.0062  16.6116

          k = 0.6210 0.4410 0.2530     band energies (ev):

    -3.4613  -0.5177   3.2391   4.3294   8.6738   9.1296  10.7587  12.8714
    14.8540  15.6823  17.0512

          k = 0.7210 0.5410 0.1530     band energies (ev):

    -2.8889  -0.6692   2.1327   3.7747   8.4253  10.1289  12.4021  12.6821
    13.0573  15.6678  18.3160

          k = 0.8210 0.6410 0.0530     band energies (ev):

    -2.2386  -1.0460   1.7307   3.2692   7.8848  10.5170  12.0192  13.0051
    14.3626  15.7914  19.3489

          k = 0.9210 0.7410-0.0470     band energies (ev):

    -2.0141  -1.3080   2.2096   2.9671   7.5476   8.6222  13.2594  14.1138
    15.5470  16.6326  18.5990

          k = 1.0210 0.8410-0.1470     band energies (ev):

    -2.7563  -0.5840   2.8611   3.0882   7.1129   7.6131  13.6447  14.8937
    16.4549  17.2529  18.0303

          k = 0.2210-0.1590 0.8530     band energies (ev):

    -2.6667  -0.6653   2.1920   3.4418   7.1500   9.0603  12.9230  13.6848
    15.6813  16.5810  18.4773

          k = 0.3210-0.0590 0.7530     band energies (ev):

    -3.1525  -0.0971   2.3450   3.2808   8.3920   9.4422  10.9122  13.7124
    15.1994  16.1269  18.8545

          k = 0.4210 0.0410 0.6530     band energies (ev):

    -3.4475   0.1506   2.1595   3.9237   9.1746   9.6604  10.7672  12.6651
    14.4923  14.9186  18.8456

          k = 0.5210 0.1410 0.5530     band energies (ev):

    -3.5395  -0.1277   2.5478   4.5239   8.2899  10.3598  10.7718  13.0435
    13.5757  14.7752  17.5762

          k = 0.6210 0.2410 0.4530     band energies (ev):

    -3.4417  -0.5094   3.1441   4.3230   8.7279   9.1225  10.8340  12.8960
    14.7785  15.5230  17.0647

          k = 0.7210 0.3410 0.3530     band energies (ev):

    -3.1912  -0.7169   2.8919   4.1897   7.9445  10.3665  10.8065  12.5214
    15.1531  15.7722  17.5300

          k = 0.8210 0.4410 0.2530     band energies (ev):

    -2.8387  -0.7385   2.1856   3.7039   8.4063  10.1059  12.3580  12.4910
    13.2950  16.1452  18.1931

          k = 0.9210 0.5410 0.1530     band energies (ev):

    -2.4180  -0.8334   1.8900   2.9035   9.4870   9.9083  10.9597  12.5743
    14.4905  16.7907  18.3947

          k = 1.0210 0.6410 0.0530     band energies (ev):

    -1.9432  -1.2842   2.1751   2.4660   8.8156   9.1558  11.9374  12.8611
    15.9232  16.9251  18.4451

          k = 1.1210 0.7410-0.0470     band energies (ev):

    -2.0495  -1.2723   2.0470   3.1663   7.3622   8.9748  13.2666  14.1406
    15.1013  16.2138  18.9666

          k = 0.3210-0.2590 0.9530     band energies (ev):

    -2.3844  -0.9422   1.6376   3.6830   7.4255  10.9064  12.5601  13.3319
    13.7194  14.6346  20.2861

          k = 0.4210-0.1590 0.8530     band energies (ev):

    -2.5400  -0.8078   1.9405   3.1962   8.6270  10.3878  11.2576  13.0520
    13.7782  16.9331  18.0538

          k = 0.5210-0.0590 0.7530     band energies (ev):

    -2.7183  -0.6006   1.7876   3.4602   8.6593  10.4916  11.6759  12.7214
    13.5999  15.3765  19.4833

          k = 0.6210 0.0410 0.6530     band energies (ev):

    -2.8288  -0.5350   1.6669   4.0205   7.7110  11.8526  12.2153  12.7682
    13.1692  13.6755  19.5776

          k = 0.7210 0.1410 0.5530     band energies (ev):

    -2.8520  -0.6728   2.0548   3.7703   8.3103  10.3420  12.4681  12.6126
    13.0399  15.5251  18.4908

          k = 0.8210 0.2410 0.4530     band energies (ev):

    -2.8183  -0.7396   2.1730   3.6341   8.5625   9.9572  12.3887  12.5995
    13.1369  16.3289  18.1347

          k = 0.9210 0.3410 0.3530     band energies (ev):

    -2.7509  -0.6614   1.7339   3.9777   7.6333  11.8301  12.0416  12.5008
    13.7159  13.9355  19.2891

          k = 1.0210 0.4410 0.2530     band energies (ev):

    -2.6351  -0.6607   1.6705   3.5381   8.2714  11.1142  11.9122  12.3568
    13.7062  14.9632  20.1242

          k = 1.1210 0.5410 0.1530     band energies (ev):

    -2.4780  -0.8239   1.9158   3.0304   9.2343   9.9258  11.3082  12.6137
    14.1013  17.0584  18.0105

          k = 1.2210 0.6410 0.0530     band energies (ev):

    -2.3606  -0.9485   1.6729   3.4913   7.7309  10.9112  12.0647  13.0719
    13.8812  15.2663  19.8209

          k = 0.4210-0.3590 1.0530     band energies (ev):

    -3.0164  -0.3730   1.7768   4.1057   7.9158  11.3641  12.1714  12.6818
    13.2992  13.7483  19.1591

          k = 0.5210-0.2590 0.9530     band energies (ev):

    -2.8699  -0.4321   1.8634   3.4619   9.0073  10.1157  11.1466  13.2952
    13.5984  15.3144  19.4514

          k = 0.6210-0.1590 0.8530     band energies (ev):

    -2.6012  -0.7390   1.9974   3.2206   8.3132  10.4565  11.0253  13.6196
    13.8396  17.0423  17.9565

          k = 0.7210-0.0590 0.7530     band energies (ev):

    -2.2997  -1.0297   1.7028   3.6308   7.2584  10.3658  12.9580  13.4168
    14.2783  14.7797  20.2327

          k = 0.8210 0.0410 0.6530     band energies (ev):

    -2.1953  -1.0885   1.7244   3.2850   7.7822  10.3915  12.2478  13.0596
    14.4423  15.6766  19.4654

          k = 0.9210 0.1410 0.5530     band energies (ev):

    -2.3763  -0.8663   1.9028   2.8496   9.3691  10.0695  10.8414  12.6054
    14.6183  16.9225  18.2857

          k = 1.0210 0.2410 0.4530     band energies (ev):

    -2.6136  -0.6719   1.6879   3.4475   8.4293  10.9705  11.7365  12.3707
    13.8460  15.1552  20.0051

          k = 1.1210 0.3410 0.3530     band energies (ev):

    -2.8039  -0.6992   1.9044   4.0033   7.6730  11.5995  11.8006  12.3804
    14.0715  14.2767  18.7888

          k = 1.2210 0.4410 0.2530     band energies (ev):

    -2.9448  -0.7358   2.4037   3.7953   8.4741   9.8338  12.0937  12.4706
    13.6628  16.4130  17.8179

          k = 1.3210 0.5410 0.1530     band energies (ev):

    -3.0296  -0.5878   2.2223   3.9914   8.2925  10.2078  11.9598  12.9015
    13.3655  15.1394  18.0880

          k = 0.5210-0.4590 1.1530     band energies (ev):

    -3.7152   0.0197   2.8008   4.6152   8.4704   9.9139  10.6735  12.7183
    13.7227  15.2203  17.4310

          k = 0.6210-0.3590 1.0530     band energies (ev):

    -3.6147   0.3399   2.3665   3.9449   9.1992   9.5354  10.4494  12.5407
    14.6176  15.5055  18.5897

          k = 0.7210-0.2590 0.9530     band energies (ev):

    -3.2986   0.0826   2.5231   3.3197   8.0835   9.0278  11.3081  13.6870
    15.8434  16.0757  18.8918

          k = 0.8210-0.1590 0.8530     band energies (ev):

    -2.7777  -0.5473   2.3728   3.4293   7.0250   8.6037  13.3242  13.7065
    16.3231  16.8000  18.2684

          k = 0.9210-0.0590 0.7530     band energies (ev):

    -2.0949  -1.2358   2.2531   3.0046   7.4622   8.5181  13.3105  14.3665
    15.4564  16.7197  18.5131

          k = 1.0210 0.0410 0.6530     band energies (ev):

    -1.8805  -1.3569   2.2117   2.4646   8.6942   9.0244  12.1867  12.9054
    16.0403  16.8492  18.5099

          k = 1.1210 0.1410 0.5530     band energies (ev):

    -2.4375  -0.8509   1.9071   2.9919   9.1020  10.1199  11.1748  12.6435
    14.2235  17.1157  17.9833

          k = 1.2210 0.2410 0.4530     band energies (ev):

    -2.9248  -0.7340   2.3762   3.7374   8.6297   9.6897  12.2219  12.4829
    13.4983  16.5639  17.7607

          k = 1.3210 0.3410 0.3530     band energies (ev):

    -3.3304  -0.6645   3.2007   4.2609   8.0338  10.0398  10.5751  12.6169
    15.1900  16.2092  17.5018

          k = 1.4210 0.4410 0.2530     band energies (ev):

    -3.6101  -0.4066   3.4360   4.5049   8.5793   9.1642  10.4357  13.0138
    14.8494  15.4151  17.0572

          k = 0.6210-0.5590 1.2530     band energies (ev):

    -4.2520   0.3654   4.2222   4.9720   8.1911   9.3676   9.7779  12.9857
    13.9623  14.9992  16.2293

          k = 0.7210-0.4590 1.1530     band energies (ev):

    -4.2477   0.8982   3.4930   4.3702   8.2698   9.9448  10.6390  11.1451
    14.7863  16.1227  16.6442

          k = 0.8210-0.3590 1.0530     band energies (ev):

    -4.0039   1.0048   3.1767   3.7316   7.4801   8.7514  11.6861  12.7632
    15.4651  16.8205  17.5095

          k = 0.9210-0.2590 0.9530     band energies (ev):

    -3.5268   0.3643   3.2395   3.4423   6.7846   7.7253  13.5123  13.7478
    16.5212  16.7792  18.2999

          k = 1.0210-0.1590 0.8530     band energies (ev):

    -2.8464  -0.4852   2.9173   3.1323   7.0395   7.5779  13.6829  14.7861
    16.7134  17.1840  18.0557

          k = 1.1210-0.0590 0.7530     band energies (ev):

    -2.1169  -1.2125   2.0900   3.1953   7.2892   8.8669  13.3195  14.3709
    15.0354  16.2927  18.8877

          k = 1.2210 0.0410 0.6530     band energies (ev):

    -2.3181  -0.9857   1.6582   3.5014   7.6396  10.7916  12.2797  13.1322
    13.9549  15.1513  19.9377

          k = 1.3210 0.1410 0.5530     band energies (ev):

    -2.9930  -0.5873   2.1327   3.9859   8.1906  10.4198  12.0341  12.8975
    13.2673  14.9947  18.2542

          k = 1.4210 0.2410 0.4530     band energies (ev):

    -3.5905  -0.3975   3.3274   4.5049   8.5929   9.2164  10.4941  13.0404
    14.8090  15.2488  17.0382

          k = 1.5210 0.3410 0.3530     band energies (ev):

    -4.0254  -0.1046   4.5928   4.6944   7.9681   9.2558   9.7487  13.2721
    14.4836  15.5422  16.1612

          k =-0.3790 0.4410 0.4530     band energies (ev):

    -3.8248  -0.5093   4.6829   4.8783   7.6713   9.3767   9.4235  13.6807
    15.0501  15.5136  16.5663

          k =-0.2790 0.5410 0.3530     band energies (ev):

    -3.9185  -0.0592   3.9600   4.5243   8.2781   9.3445  10.2129  12.4717
    14.9100  15.7629  16.9798

          k =-0.1790 0.6410 0.2530     band energies (ev):

    -3.8006   0.3964   3.0789   3.9343   7.7735  10.1513  10.8607  11.7219
    16.1923  16.4891  17.3956

          k =-0.0790 0.7410 0.1530     band energies (ev):

    -3.4585   0.2725   2.9240   3.4648   7.1151   8.2221  12.7673  13.5073
    16.6350  17.3858  17.5516

          k = 0.0210 0.8410 0.0530     band energies (ev):

    -2.8984  -0.4644   3.1856   3.2580   6.6141   7.1792  14.6219  14.7893
    17.2632  17.4874  17.8574

          k = 0.1210 0.9410-0.0470     band energies (ev):

    -2.1634  -1.2715   2.8212   3.1455   6.8471   7.2909  14.8585  15.4628
    16.2697  16.9316  18.3223

          k = 0.2210 1.0410-0.1470     band energies (ev):

    -2.0374  -1.3084   2.0575   3.3234   7.0693   8.8370  13.7907  14.5047
    14.9614  15.8017  19.3472

          k = 0.3210 1.1410-0.2470     band energies (ev):

    -2.6321  -0.7958   1.9200   3.7045   7.5228  10.8572  11.8564  12.7684
    14.4419  15.5727  19.2239

          k = 0.4210 1.2410-0.3470     band energies (ev):

    -3.1401  -0.7618   2.7693   4.2214   8.1303  10.0577  10.9825  13.2387
    14.2684  15.3979  17.3736

          k = 0.5210 1.3410-0.4470     band energies (ev):

    -3.5501  -0.7477   4.0491   4.6842   8.1382   9.2415   9.7608  13.8813
    14.8913  15.7467  16.9495

          k =-0.2790 0.3410 0.5530     band energies (ev):

    -3.8976  -0.0523   3.8996   4.4558   8.2477   9.4414  10.3017  12.3001
    15.0241  15.9236  16.9927

          k =-0.1790 0.4410 0.4530     band energies (ev):

    -4.1291   0.4146   3.4460   4.9393   8.5239   9.7491   9.9031  12.9222
    13.1683  15.4712  17.3707

          k =-0.0790 0.5410 0.3530     band energies (ev):

    -4.1313   0.8786   2.8630   4.5242   9.0630   9.3707  10.7996  11.4537
    13.8231  16.2800  17.6353

          k = 0.0210 0.6410 0.2530     band energies (ev):

    -3.8972   0.8255   2.8511   3.7758   8.0950   9.1730  10.8937  12.8190
    15.0707  16.8745  17.6663

          k = 0.1210 0.7410 0.1530     band energies (ev):

    -3.4335   0.2228   2.8151   3.5395   7.1173   8.4804  12.7587  13.1266
    17.0007  17.3045  17.5627

          k = 0.2210 0.8410 0.0530     band energies (ev):

    -2.7700  -0.5283   2.5500   3.0886   7.4603   8.2566  12.7896  14.6141
    15.7342  17.1870  18.0770

          k = 0.3210 0.9410-0.0470     band energies (ev):

    -2.0269  -1.2360   2.1771   2.6635   8.2714   8.9776  12.3645  13.4090
    15.7084  16.9512  18.3633

          k = 0.4210 1.0410-0.1470     band energies (ev):

    -2.1860  -1.0510   1.7587   2.9602   8.6098  10.7595  11.4559  12.1023
    14.8188  16.2548  18.9727

          k = 0.5210 1.1410-0.2470     band energies (ev):

    -2.8623  -0.6108   2.1127   3.5206   9.1314   9.4967  11.8837  12.9290
    13.2977  16.1857  18.3098

          k = 0.6210 1.2410-0.3470     band energies (ev):

    -3.4605  -0.3700   3.0799   4.1256   8.3189   9.6938  11.1620  11.9732
    15.2697  16.2322  17.2536

          k =-0.1790 0.2410 0.6530     band energies (ev):

    -3.7589   0.3818   3.0205   3.8886   7.6833   9.9945  11.0712  11.8244
    16.3687  16.5956  17.4002

          k =-0.0790 0.3410 0.5530     band energies (ev):

    -4.1102   0.8708   2.8691   4.4338   8.9395   9.5061  10.6305  11.5859
    14.0147  16.3276  17.6365

          k = 0.0210 0.4410 0.4530     band energies (ev):

    -4.2271   1.0664   2.6415   4.9444   8.6902  10.3094  10.6144  11.8135
    12.2787  16.2987  17.6527

          k = 0.1210 0.5410 0.3530     band energies (ev):

    -4.1050   0.7034   3.0654   4.5260   8.8795   9.3779  11.0146  11.2756
    14.1183  16.0712  17.5580

          k = 0.2210 0.6410 0.2530     band energies (ev):

    -3.7511   0.2272   3.1411   3.9979   7.7690  10.5131  10.8055  11.3808
    16.2017  16.6507  17.2956

          k = 0.3210 0.7410 0.1530     band energies (ev):

    -3.1905  -0.2205   2.4329   3.5768   7.9830  10.2067  10.8904  12.7715
    15.3575  16.7636  17.8220

          k = 0.4210 0.8410 0.0530     band energies (ev):

    -2.4832  -0.7516   1.9560   2.8639   9.2972  10.0257  10.5660  13.0785
    14.6366  16.6662  18.5901

          k = 0.5210 0.9410-0.0470     band energies (ev):

    -1.9236  -1.2523   1.9325   2.4536   9.7619  10.3306  10.9613  11.4353
    15.7078  16.9354  18.4232

          k = 0.6210 1.0410-0.1470     band energies (ev):

    -2.4787  -0.7529   2.0618   2.7950   8.9331   9.6283  10.9686  13.4864
    14.8500  16.8228  18.4890

          k = 0.7210 1.1410-0.2470     band energies (ev):

    -3.1959  -0.1452   2.4477   3.5253   7.6962   9.6801  11.4258  13.0083
    15.7783  16.9429  17.8373

          k =-0.0790 0.1410 0.7530     band energies (ev):

    -3.3973   0.1941   2.9300   3.4444   7.0395   8.0970  12.9998  13.6172
    16.7672  17.4102  17.5820

          k = 0.0210 0.2410 0.6530     band energies (ev):

    -3.8555   0.7818   2.8748   3.7025   7.9671   9.0191  11.1080  12.9489
    15.2343  16.9395  17.6560

          k = 0.1210 0.3410 0.5530     band energies (ev):

    -4.0839   0.6999   3.0625   4.4374   8.7663   9.5097  10.8963  11.3486
    14.3133  16.1282  17.5577

          k = 0.2210 0.4410 0.4530     band energies (ev):

    -4.0788   0.1980   3.7354   4.9341   8.3868   9.6013   9.7522  13.2654
    13.5226  15.2233  17.1954

          k = 0.3210 0.5410 0.3530     band energies (ev):

    -3.8504  -0.2446   4.1465   4.5313   8.1786   9.3060  10.0258  12.8567
    14.7715  16.0961  16.8452

          k = 0.4210 0.6410 0.2530     band energies (ev):

    -3.4261  -0.5091   3.1653   4.2307   8.5710   9.2896  10.9362  12.5859
    14.9403  15.9567  17.1346

          k = 0.5210 0.7410 0.1530     band energies (ev):

    -2.8538  -0.6738   2.1234   3.6482   8.6855   9.8780  12.4609  12.6508
    13.0028  15.9876  18.3134

          k = 0.6210 0.8410 0.0530     band energies (ev):

    -2.2040  -1.0616   1.7566   3.1196   8.1517  10.5298  11.7748  12.7263
    14.5956  16.0848  19.0912

          k = 0.7210 0.9410-0.0470     band energies (ev):

    -1.9902  -1.3131   2.2355   2.8163   7.8178   8.6526  13.0012  13.8470
    15.7273  16.7912  18.4774

          k = 0.8210 1.0410-0.1470     band energies (ev):

    -2.7363  -0.5931   2.7239   3.1083   7.1986   7.8296  13.4049  14.8023
    16.1884  17.2911  17.9865

          k = 0.0210 0.0410 0.8530     band energies (ev):

    -2.8195  -0.5635   3.1927   3.2489   6.5865   7.1104  14.8090  14.8999
    17.3530  17.5324  17.8610

          k = 0.1210 0.1410 0.7530     band energies (ev):

    -3.3725   0.1514   2.8100   3.5118   7.0584   8.3511  12.9891  13.2328
    17.1284  17.3210  17.6108

          k = 0.2210 0.2410 0.6530     band energies (ev):

    -3.7096   0.2203   3.0603   3.9541   7.6971  10.3622  10.9946  11.4880
    16.3215  16.7975  17.3265

          k = 0.3210 0.3410 0.5530     band energies (ev):

    -3.8296  -0.2364   4.0578   4.4787   8.1847   9.3761  10.1091  12.6951
    14.8648  16.2456  16.8837

          k = 0.4210 0.4410 0.4530     band energies (ev):

    -3.7486  -0.6500   4.8070   4.8512   7.5605   9.3585   9.3896  13.6251
    15.5027  15.7673  16.5337

          k = 0.5210 0.5410 0.3530     band energies (ev):

    -3.5040  -0.8296   4.0793   4.7030   8.0742   9.3153   9.6591  13.9380
    15.2857  15.5095  16.8531

          k = 0.6210 0.6410 0.2530     band energies (ev):

    -3.1391  -0.7715   2.7989   4.2320   7.9867  10.3552  10.7874  12.9340
    14.8206  15.3118  17.4122

          k = 0.7210 0.7410 0.1530     band energies (ev):

    -2.6758  -0.7521   1.9752   3.7305   7.3724  10.5805  12.2480  12.4974
    15.1108  15.4378  19.3388

          k = 0.8210 0.8410 0.0530     band energies (ev):

    -2.1022  -1.2618   2.1596   3.3655   6.9225   8.5654  14.1897  14.4966
    15.3961  15.7149  19.4528

          k = 0.9210 0.9410-0.0470     band energies (ev):

    -2.0894  -1.3708   2.9121   3.1984   6.7134   7.0968  15.3720  15.5393
    16.5878  16.7780  18.4944

          k = 0.1210-0.0590 0.9530     band energies (ev):

    -2.0753  -1.3623   2.7679   3.1706   6.8228   7.3460  14.9574  15.4520
    16.1895  16.7352  18.5136

          k = 0.2210 0.0410 0.8530     band energies (ev):

    -2.6937  -0.6127   2.5727   3.0223   7.4975   8.1546  12.8874  14.7891
    15.6398  17.2048  18.0897

          k = 0.3210 0.1410 0.7530     band energies (ev):

    -3.1311  -0.2471   2.3740   3.4998   8.0040  10.0775  10.9600  13.0009
[...]

    -5.5513   4.0236   5.0865   5.5441   8.3932   9.1413   9.6075  10.9189
    12.6366  13.8010  14.9956

          k = 0.2210 0.0410 1.6530     band energies (ev):

    -5.1588   2.8317   4.1284   5.3627   8.6513   9.3275  10.1226  11.0605
    12.7913  14.4861  15.9258

          k = 0.3210 0.1410 1.5530     band energies (ev):

    -4.5382   1.2305   3.7098   4.9671   8.7132   9.3349  10.3805  11.5055
    13.4962  15.7229  16.1251

          k = 0.4210 0.2410 1.4530     band energies (ev):

    -3.7858  -0.1827   3.5523   4.6131   8.5446   9.2063  10.3140  12.8136
    14.6954  15.3655  17.3370

          k = 0.5210 0.3410 1.3530     band energies (ev):

    -3.3449  -0.8426   3.5592   4.4341   8.4330   9.1570  10.2893  13.9557
    14.4523  15.8172  17.3194

          k = 0.6210 0.4410 1.2530     band energies (ev):

    -3.8283  -0.1146   3.6719   4.5037   8.4310   9.2926  10.4046  12.4259
    14.9749  15.6414  17.5618

          k = 0.7210 0.5410 1.1530     band energies (ev):

    -4.5793   1.3234   3.8930   4.7996   8.4947   9.4912  10.5312  11.1603
    13.9621  15.7130  15.7836

          k = 0.8210 0.6410 1.0530     band energies (ev):

    -5.1882   2.9547   4.3031   5.1765   8.3241   9.5550  10.3145  10.8157
    13.0420  14.3478  15.8969

          k = 0.9210 0.7410 0.9530     band energies (ev):

    -5.5664   4.2313   5.1208   5.3556   8.1639   9.4120   9.7339  10.6891
    12.5567  13.9680  14.9777

          k = 1.0210 0.8410 0.8530     band energies (ev):

    -5.6894   4.5855   5.2800   5.9007   8.7564   8.8340   8.9822  10.5817
    12.9587  13.6087  14.5423

          k =-0.8790 0.9410 0.9530     band energies (ev):

    -5.8070   5.2537   5.7495   5.8772   8.5312   8.7711   8.9033   9.8964
    13.3081  13.7288  14.0932

          k =-0.7790 1.0410 0.8530     band energies (ev):

    -5.5818   4.1143   5.0517   5.7380   8.5867   8.9981   9.3626  10.9471
    12.6958  13.6916  14.8996

          k =-0.6790 1.1410 0.7530     band energies (ev):

    -5.1072   2.3489   4.6028   5.3866   8.4813   9.2297   9.8533  11.7752
    12.8933  14.2105  15.3155

          k =-0.5790 1.2410 0.6530     band energies (ev):

    -4.4232   0.6794   4.3428   5.0154   8.1974   9.3478   9.8318  12.6912
    13.8701  14.9579  15.7207

          k =-0.4790 1.3410 0.5530     band energies (ev):

    -3.6923  -0.5954   4.2475   4.7543   8.0245   9.2665   9.6659  13.7459
    14.7511  15.7305  17.3270

          k =-0.3790 1.4410 0.4530     band energies (ev):

    -3.5536  -0.8002   4.2742   4.6811   8.0013   9.2275   9.6711  13.7956
    14.9978  16.2588  17.1433

          k =-0.2790 1.5410 0.3530     band energies (ev):

    -4.2138   0.2746   4.3825   4.8397   8.1305   9.2809   9.8566  12.8600
    14.3940  15.0572  16.0561

          k =-0.1790 1.6410 0.2530     band energies (ev):

    -4.9376   1.8705   4.6079   5.1712   8.3776   9.2593   9.9843  11.8057
    13.4055  14.4267  15.1919

          k =-0.0790 1.7410 0.1530     band energies (ev):

    -5.4757   3.6528   4.9860   5.5511   8.5080   9.0596   9.6568  11.1723
    12.6697  13.7432  15.1615

          k = 0.0210 1.8410 0.0530     band energies (ev):

    -5.7711   5.1492   5.5758   5.7461   8.3836   8.9951   9.0837  10.0310
    13.0503  13.8409  14.2399

          k =-0.7790 0.8410 1.0530     band energies (ev):

    -5.5611   3.9906   5.0413   5.7438   8.6369   8.9564   9.3661  11.0456
    12.6955  13.6555  14.9502

          k =-0.6790 0.9410 0.9530     band energies (ev):

    -5.4222   3.8705   4.8725   4.9629   7.8722   9.8922  10.2074  10.5705
    12.6112  14.2090  15.4540

          k =-0.5790 1.0410 0.8530     band energies (ev):

    -5.0296   2.7365   4.1238   4.7412   7.9015   9.8801  10.5046  10.8974
    13.5287  14.6720  16.3672

          k =-0.4790 1.1410 0.7530     band energies (ev):

    -4.4089   1.2153   3.6424   4.3959   8.1727  10.0666  10.4218  11.1289
    14.6573  16.1231  16.2142

          k =-0.3790 1.2410 0.6530     band energies (ev):

    -3.6562  -0.1538   3.2986   4.2022   8.2111   9.7955  10.9533  11.7393
    15.4767  16.1966  17.4277

          k =-0.2790 1.3410 0.5530     band energies (ev):

    -3.2180  -0.7935   3.0609   4.2682   8.3332   9.5753  10.7903  13.5221
    14.2505  15.7383  17.2337

          k =-0.1790 1.4410 0.4530     band energies (ev):

    -3.7091  -0.0656   2.9921   4.5534   8.6195   9.4975  10.7308  12.5730
    14.2700  15.2536  17.3142

          k =-0.0790 1.5410 0.3530     band energies (ev):

    -4.4589   1.3056   3.1795   4.9742   8.9849   9.4131  10.6404  11.3221
    13.0067  16.2283  16.7708

          k = 0.0210 1.6410 0.2530     band energies (ev):

    -5.0647   2.6176   3.8737   5.3718   8.8725   9.2631  10.1484  11.1115
    12.6649  14.8316  16.1249

          k = 0.1210 1.7410 0.1530     band energies (ev):

    -5.4400   3.4191   5.1426   5.4709   8.4808   9.0162   9.6786  11.3509
    12.7618  13.6339  15.1432

          k =-0.6790 0.7410 1.1530     band energies (ev):

    -5.0676   2.2079   4.6164   5.3805   8.4221   9.2721   9.8195  11.9295
    12.8949  14.2545  15.2405

          k =-0.5790 0.8410 1.0530     band energies (ev):

    -5.0099   2.6433   4.1062   4.7679   7.9853   9.8866  10.4699  10.8593
    13.5589  14.7023  16.3333

          k =-0.4790 0.9410 0.9530     band energies (ev):

    -4.6988   2.2536   3.9848   4.0658   7.1834   9.0282  11.6994  11.8296
    14.3121  15.1197  17.3308

          k =-0.3790 1.0410 0.8530     band energies (ev):

    -4.1503   1.2511   3.3652   3.7829   7.3208   8.6512  11.8590  12.6600
    15.3118  16.3124  17.7410

          k =-0.2790 1.1410 0.7530     band energies (ev):

    -3.4213   0.1138   2.6439   3.6239   7.5707   9.4805  11.5464  12.7332
    16.4076  16.7411  17.9520

          k =-0.1790 1.2410 0.6530     band energies (ev):

    -2.7836  -0.7184   2.0979   3.7213   7.7390  10.9689  11.4150  12.5385
    14.4340  16.0416  18.6127

          k =-0.0790 1.3410 0.5530     band energies (ev):

    -3.0349  -0.3975   1.8849   4.0383   8.0990  10.8812  12.2353  12.5345
    13.3827  14.2413  18.8419

          k = 0.0210 1.4410 0.4530     band energies (ev):

    -3.7766   0.4952   2.2429   4.5056   8.6189  10.2519  11.4361  11.6678
    13.2069  15.4491  18.5236

          k = 0.1210 1.5410 0.3530     band energies (ev):

    -4.4293   1.1091   3.4051   4.9606   8.8508   9.3666  10.4618  11.5818
    13.2715  15.9114  16.6627

          k = 0.2210 1.6410 0.2530     band energies (ev):

    -4.8707   1.6257   4.8083   5.0803   8.2139   9.2796   9.9100  12.1092
    13.7353  14.2098  14.9864

          k =-0.5790 0.6410 1.2530     band energies (ev):

    -4.3707   0.5548   4.3726   5.0160   8.1346   9.3669   9.7657  12.9059
    13.8883  14.9111  15.7989

          k =-0.4790 0.7410 1.1530     band energies (ev):

    -4.3732   1.0983   3.6580   4.4194   8.2217   9.9695  10.5844  11.0397
    14.6915  16.0882  16.2131

          k =-0.3790 0.8410 1.0530     band energies (ev):

    -4.1328   1.2058   3.3180   3.7969   7.3969   8.7473  11.7358  12.5967
    15.3401  16.4192  17.6234

          k =-0.2790 0.9410 0.9530     band energies (ev):

    -3.6565   0.5455   3.3368   3.4849   6.7491   7.7650  13.4841  13.5717
    16.3575  16.4514  18.5405

          k =-0.1790 1.0410 0.8530     band energies (ev):

    -2.9755  -0.3292   2.8840   3.2198   7.0228   7.7097  13.5116  14.5132
    16.8748  17.1153  18.0381

          k =-0.0790 1.1410 0.7530     band energies (ev):

    -2.2436  -1.0846   2.0438   3.2919   7.2401   9.0577  13.1599  14.3736
    14.8296  16.2294  18.9214

          k = 0.0210 1.2410 0.6530     band energies (ev):

    -2.3590  -0.9451   1.6165   3.5919   7.5857  10.9816  12.4084  13.0583
    13.8168  14.7942  20.2466

          k = 0.1210 1.3410 0.5530     band energies (ev):

    -3.0510  -0.4921   2.0697   4.0654   8.1320  10.5973  11.9662  12.8390
    13.4051  14.5762  18.3559

          k = 0.2210 1.4410 0.4530     band energies (ev):

    -3.6771  -0.2520   3.2747   4.5763   8.5724   9.3291  10.4624  12.9403
    14.5810  15.1965  17.1386

          k = 0.3210 1.5410 0.3530     band energies (ev):

    -4.1317   0.0685   4.5998   4.7840   7.9634   9.2758   9.7432  13.2063
    14.4225  15.2293  15.9520

          k =-0.4790 0.5410 1.3530     band energies (ev):

    -3.6545  -0.6687   4.2945   4.7639   7.9717   9.2807   9.6101  13.7859
    14.9059  15.7842  17.2480

          k =-0.3790 0.6410 1.2530     band energies (ev):

    -3.6206  -0.2484   3.3392   4.2360   8.2463   9.6934  10.8462  11.9794
    15.3644  16.2270  17.3383

          k =-0.2790 0.7410 1.1530     band energies (ev):

    -3.3951   0.0498   2.6207   3.6534   7.6150   9.6909  11.4140  12.6107
    16.2660  16.8054  17.8310

          k =-0.1790 0.8410 1.0530     band energies (ev):

    -2.9625  -0.3387   2.8018   3.2348   7.0718   7.8416  13.3726  14.4376
    16.7222  17.1637  18.0346

          k =-0.0790 0.9410 0.9530     band energies (ev):

    -2.3309  -1.1205   3.0280   3.2046   6.6677   7.0122  15.2870  15.3776
    17.0417  17.1625  18.0840

          k = 0.0210 1.0410 0.8530     band energies (ev):

    -1.8773  -1.5536   2.7419   3.0655   6.9825   7.3945  14.8811  15.2325
    16.2165  16.6320  18.6080

          k = 0.1210 1.1410 0.7530     band energies (ev):

    -2.4934  -0.8321   2.1166   3.3299   7.2801   9.1065  12.8108  14.1130
    15.0982  16.6051  18.5109

          k = 0.2210 1.2410 0.6530     band energies (ev):

    -2.9589  -0.6209   2.3217   3.7909   7.8184  10.7903  11.3607  12.1869
    14.8040  16.3661  18.1493

          k = 0.3210 1.3410 0.5530     band energies (ev):

    -3.2975  -0.8120   3.3474   4.3493   8.3698   9.3677  10.5039  13.5887
    14.5279  15.8740  17.3125

          k = 0.4210 1.4410 0.4530     band energies (ev):

    -3.5335  -0.8796   4.4534   4.7155   7.8497   9.2593   9.5459  13.7508
    15.3553  16.4800  17.2588

          k =-0.3790 0.4410 1.4530     band energies (ev):

    -3.5965  -0.7544   4.3423   4.6939   7.9614   9.2365   9.6470  13.7551
    14.9426  16.2963  17.2369

          k =-0.2790 0.5410 1.3530     band energies (ev):

    -3.2471  -0.7908   3.1249   4.3120   8.3705   9.4952  10.6944  13.7595
    14.1448  15.6470  17.1422

          k =-0.1790 0.6410 1.2530     band energies (ev):

    -2.7965  -0.7346   2.1128   3.7655   7.7906  10.9601  11.5457  12.4164
    14.3035  15.9172  18.5791

          k =-0.0790 0.7410 1.1530     band energies (ev):

    -2.2481  -1.0752   1.9767   3.3245   7.2782   9.2816  13.0148  14.2418
    14.6801  16.1022  19.0337

          k = 0.0210 0.8410 1.0530     band energies (ev):

    -1.8752  -1.5440   2.6484   3.0823   7.0024   7.5580  14.7338  15.1048
    16.0980  16.5573  18.6699

          k = 0.1210 0.9410 0.9530     band energies (ev):

    -2.6301  -0.7801   3.0643   3.2377   6.6562   7.1224  14.9209  15.0080
    17.3824  17.5307  17.7131

          k = 0.2210 1.0410 0.8530     band energies (ev):

    -3.2444   0.0045   2.9585   3.3029   7.0592   7.8621  13.1536  14.1222
    16.7302  17.2386  17.8139

          k = 0.3210 1.1410 0.7530     band energies (ev):

    -3.6496   0.3516   2.8387   3.7458   7.6808   9.6326  11.2265  12.3740
    16.2900  16.6223  17.8440

          k = 0.4210 1.2410 0.6530     band energies (ev):

    -3.8340  -0.0016   3.5534   4.3567   8.3113   9.5636  10.6680  11.9000
    15.2698  15.8564  17.5073

          k = 0.5210 1.3410 0.5530     band energies (ev):

    -3.8068  -0.4716   4.4053   4.8543   7.8927   9.3593   9.5217  13.7460
    14.7275  15.4106  17.0348

          k =-0.2790 0.3410 1.5530     band energies (ev):

    -4.2835   0.3860   4.4685   4.8556   8.1040   9.2856   9.8493  12.8110
    14.3672  14.9777  15.8098

          k =-0.1790 0.4410 1.4530     band energies (ev):

    -3.7899   0.0255   3.0773   4.6035   8.6505   9.4431  10.6510  12.4906
    14.1898  15.3803  17.3719

          k =-0.0790 0.5410 1.3530     band energies (ev):

    -3.1192  -0.3190   1.9331   4.0938   8.1621  10.7704  12.1234  12.4466
    13.6176  14.1445  18.7248

          k = 0.0210 0.6410 1.2530     band energies (ev):

    -2.4280  -0.8799   1.6065   3.6385   7.6390  11.2106  12.2895  12.9390
    13.6789  14.6791  20.3160

          k = 0.1210 0.7410 1.1530     band energies (ev):

    -2.4868  -0.8397   2.0556   3.3622   7.3189   9.3288  12.6685  13.9816
    14.9498  16.4773  18.6193

          k = 0.2210 0.8410 1.0530     band energies (ev):

    -3.2301  -0.0108   2.8821   3.3171   7.1160   7.9849  13.0175  14.0485
    16.7766  17.0894  17.9349

          k = 0.3210 0.9410 0.9530     band energies (ev):

    -3.9004   0.9049   3.4452   3.5826   6.8126   7.9917  13.1032  13.1972
    15.9437  16.1298  18.5098

          k = 0.4210 1.0410 0.8530     band energies (ev):

    -4.3609   1.5736   3.5039   3.9551   7.4223   8.9127  11.5289  12.2793
    14.9347  15.9269  17.5421

          k = 0.5210 1.1410 0.7530     band energies (ev):

    -4.5811   1.4455   3.8522   4.6135   8.3065   9.7941  10.6477  10.8611
    14.2470  15.6858  15.9910

          k = 0.6210 1.2410 0.6530     band energies (ev):

    -4.5535   0.8886   4.5129   5.1361   8.0891   9.4305   9.6948  12.9462
    13.4729  14.8220  15.2896

          k =-0.1790 0.2410 1.6530     band energies (ev):

    -4.9970   2.0089   4.7056   5.1912   8.3628   9.2416   9.9582  11.8019
    13.3721  14.2243  15.1725

          k =-0.0790 0.3410 1.5530     band energies (ev):

    -4.5358   1.4311   3.2817   5.0241   8.9891   9.3732  10.5679  11.2922
    12.9701  16.1871  16.5329

          k = 0.0210 0.4410 1.4530     band energies (ev):

    -3.8655   0.6044   2.3213   4.5649   8.6821  10.1494  11.3696  11.5638
    13.1410  15.6698  18.4014

          k = 0.1210 0.5410 1.3530     band energies (ev):

    -3.1289  -0.4255   2.1226   4.1197   8.1934  10.4905  11.8558  12.7558
    13.6363  14.4733  18.2448

          k = 0.2210 0.6410 1.2530     band energies (ev):

    -2.9572  -0.6596   2.3444   3.8338   7.8688  10.7013  11.5714  12.0698
    14.6727  16.2431  18.1519

          k = 0.3210 0.7410 1.1530     band energies (ev):

    -3.6207   0.2739   2.8263   3.7742   7.7271   9.8381  11.0970  12.2551
    16.3388  16.4970  17.9465

          k = 0.4210 0.8410 1.0530     band energies (ev):

    -4.3427   1.5183   3.4646   3.9708   7.5014   9.0027  11.4096  12.2199
    14.9591  16.0218  17.4389

          k = 0.5210 0.9410 0.9530     band energies (ev):

    -4.8781   2.6052   4.1606   4.2244   7.3126   9.3380  11.3410  11.4767
    13.8876  14.8938  16.9277

          k = 0.6210 1.0410 0.8530     band energies (ev):

    -5.1733   3.0331   4.3105   4.9720   8.0474   9.8203  10.5447  10.5845
    13.1828  14.4053  16.0337

          k = 0.7210 1.1410 0.7530     band energies (ev):

    -5.2133   2.6014   4.7919   5.5083   8.4102   9.2534   9.6651  11.9657
    12.6756  13.8988  15.2075

          k =-0.0790 0.1410 1.7530     band energies (ev):

    -5.5170   3.8049   5.0866   5.5701   8.4928   9.0325   9.5986  11.0950
    12.6749  13.7161  15.0591

          k = 0.0210 0.2410 1.6530     band energies (ev):

    -5.1252   2.7636   3.9855   5.4093   8.8158   9.2631  10.0752  11.1313
    12.6586  14.6387  16.0241

          k = 0.1210 0.3410 1.5530     band energies (ev):

    -4.5054   1.2317   3.5073   5.0062   8.8327   9.3534  10.4024  11.5451
    13.2286  15.8741  16.4072

          k = 0.2210 0.4410 1.4530     band energies (ev):

    -3.7533  -0.1678   3.3596   4.6212   8.5774   9.3006  10.3917  12.8560
    14.5071  15.2799  17.2389

          k = 0.3210 0.5410 1.3530     band energies (ev):

    -3.3103  -0.8283   3.4116   4.3883   8.3871   9.3070  10.4142  13.7998
    14.4476  15.7964  17.2250

          k = 0.4210 0.6410 1.2530     band energies (ev):

    -3.7933  -0.1052   3.5952   4.3868   8.3328   9.4768  10.5674  12.1360
    15.1828  15.8864  17.5803

          k = 0.5210 0.7410 1.1530     band energies (ev):

    -4.5444   1.3214   3.8704   4.6351   8.3500   9.7035  10.6883  10.9021
    14.2740  15.7655  15.8736

          k = 0.6210 0.8410 1.0530     band energies (ev):

    -5.1533   2.9312   4.2961   5.0002   8.1302   9.7551  10.5135  10.6262
    13.2147  14.4168  16.0204

          k = 0.7210 0.9410 0.9530     band energies (ev):

    -5.5315   4.1858   5.0666   5.1854   8.0288   9.6254   9.8932  10.6214
    12.5144  14.0719  15.1032

          k = 0.8210 1.0410 0.8530     band energies (ev):

    -5.6547   4.3920   5.2419   5.8520   8.6909   8.8600   9.1229  10.7348
    12.8800  13.6008  14.6586

          k = 0.0210 0.0410 1.8530     band energies (ev):

    -5.7921   5.2860   5.6444   5.7583   8.3916   8.9599   9.0239   9.9111
    13.1330  13.8484  14.1559

          k = 0.1210 0.1410 1.7530     band energies (ev):

    -5.4812   3.5692   5.2228   5.4972   8.4819   8.9875   9.6185  11.2786
    12.7508  13.6067  15.0719

          k = 0.2210 0.2410 1.6530     band energies (ev):

    -4.9294   1.7622   4.8843   5.1025   8.2087   9.2738   9.8887  12.0993
    13.6926  14.0087  14.9802

          k = 0.3210 0.3410 1.5530     band energies (ev):

    -4.1984   0.1761   4.6740   4.7894   7.9460   9.2844   9.7412  13.1645
    14.3985  15.1081  15.7433

          k = 0.4210 0.4410 1.4530     band energies (ev):

    -3.5628  -0.8485   4.5067   4.7193   7.8190   9.2620   9.5349  13.7268
    15.2905  16.5752  17.2559

          k = 0.5210 0.5410 1.3530     band energies (ev):

    -3.7602  -0.5551   4.4420   4.8498   7.8488   9.3714   9.4777  13.7533
    14.9115  15.4901  17.1140

          k = 0.6210 0.6410 1.2530     band energies (ev):

    -4.4991   0.7606   4.5364   5.1194   8.0337   9.4484   9.6485  13.1513
    13.5003  14.7768  15.3657

          k = 0.7210 0.7410 1.1530     band energies (ev):

    -5.1732   2.4577   4.8014   5.4844   8.3499   9.3000   9.6593  12.1085
    12.6818  13.9294  15.1524

          k = 0.8210 0.8410 1.0530     band energies (ev):

    -5.6339   4.2654   5.2305   5.8407   8.6918   8.8654   9.1503  10.8362
    12.8633  13.5661  14.7209

          k = 0.9210 0.9410 0.9530     band energies (ev):

    -5.8437   5.4875   5.8797   5.9454   8.6077   8.6702   8.7343   9.6731
    13.5493  13.6858  13.9396

     highest occupied, lowest unoccupied level (ev):     5.9876    6.5865

     Writing output data file silicon.save
 
     init_run     :      0.04s CPU      0.10s WALL (       1 calls)
     electrons    :    117.44s CPU    132.24s WALL (       1 calls)

     Called by init_run:
     wfcinit      :      0.00s CPU      0.00s WALL (       1 calls)
     potinit      :      0.00s CPU      0.01s WALL (       1 calls)

     Called by electrons:
     c_bands      :    117.43s CPU    132.22s WALL (       1 calls)
     v_of_rho     :      0.00s CPU      0.00s WALL (       1 calls)

     Called by c_bands:
     init_us_2    :      0.00s CPU      0.02s WALL (    1000 calls)
     cegterg      :    100.21s CPU    101.25s WALL (    1959 calls)

     Called by *egterg:
     h_psi        :     23.17s CPU     43.18s WALL (   30568 calls)
     g_psi        :      0.02s CPU      0.09s WALL (   27609 calls)
     cdiaghg      :     89.96s CPU     64.82s WALL (   28609 calls)

     Called by h_psi:
     add_vuspsi   :      0.08s CPU      0.22s WALL (   30568 calls)

     General routines
     calbec       :      0.35s CPU      0.87s WALL (   30568 calls)
     fft          :      0.01s CPU      0.01s WALL (       3 calls)
     fftw         :     22.39s CPU     40.77s WALL (  423484 calls)
     davcio       :      0.00s CPU      0.04s WALL (    2000 calls)
 
     Parallel routines
     fft_scatter  :     19.72s CPU     31.96s WALL (  423487 calls)
     EXX routines
 
     PWSCF        :  2m 2.97s CPU     2m28.04s WALL

 
   This run was terminated on:  15:52: 0  24Feb2012            

=------------------------------------------------------------------------------=
   JOB DONE.
=------------------------------------------------------------------------------=
