srun: Job 41570930 step creation temporarily disabled, retrying (Requested nodes are busy)
srun: Step created for job 41570930

     Program PWSCF v.6.4.1 starts on 12Apr2021 at 13:53:24 

     This program is part of the open-source Quantum ESPRESSO suite
     for quantum simulation of materials; please cite
         "P. Giannozzi et al., J. Phys.:Condens. Matter 21 395502 (2009);
         "P. Giannozzi et al., J. Phys.:Condens. Matter 29 465901 (2017);
          URL http://www.quantum-espresso.org", 
     in publications or presentations arising from this work. More details at
     http://www.quantum-espresso.org/quote

     Parallel version (MPI & OpenMP), running on      32 processor cores
     Number of MPI processes:                32
     Threads/MPI process:                     1

     MPI processes distributed on     1 nodes
     K-points division:     npool     =      32
     Waiting for input...
     Reading input from standard input

     Current dimensions of program PWSCF are:
     Max number of different atomic species (ntypx) = 10
     Max number of k-points (npk) =  40000
     Max angular momentum in pseudopotentials (lmaxx) =  3

     Atomic positions and unit cell read from directory:
     ./silicon.save/
 
     Message from routine read_upf::
     Pseudo file Si_FR.UPF has been fixed on the fly.
To avoid this message in the future, permanently fix 
 your pseudo files following these instructions: 
https://gitlab.com/QEF/q-e/blob/master/upftools/how_to_fix_upf.md

     Subspace diagonalization in iterative solution of the eigenvalue problem:
     a serial algorithm will be used

     Message from routine setup:
     DEPRECATED: symmetry with ibrav=0, use correct ibrav instead
 
     G-vector sticks info
     --------------------
     sticks:   dense  smooth     PW     G-vecs:    dense   smooth      PW
     Sum         361     361    139                 4573     4573    1067
 


     bravais-lattice index     =            0
     lattice parameter (alat)  =       7.2558  a.u.
     unit-cell volume          =     270.1072 (a.u.)^3
     number of atoms/cell      =            2
     number of atomic types    =            1
     number of electrons       =         8.00
     number of Kohn-Sham states=           12
     kinetic-energy cutoff     =      25.0000  Ry
     charge density cutoff     =     100.0000  Ry
     Exchange-correlation      = PZ ( 1  1  0  0 0 0)
     Non magnetic calculation with spin-orbit


     celldm(1)=   7.255773  celldm(2)=   0.000000  celldm(3)=   0.000000
     celldm(4)=   0.000000  celldm(5)=   0.000000  celldm(6)=   0.000000

     crystal axes: (cart. coord. in units of alat)
               a(1) = (   0.707107   0.707107   0.000000 )  
               a(2) = (   0.000000   0.707107   0.707107 )  
               a(3) = (   0.707107   0.000000   0.707107 )  

     reciprocal axes: (cart. coord. in units 2 pi/alat)
               b(1) = (  0.707107  0.707107 -0.707107 )  
               b(2) = ( -0.707107  0.707107  0.707107 )  
               b(3) = (  0.707107 -0.707107  0.707107 )  


     PseudoPot. # 1 for Si read from file:
     ../../../pseudo/ld1/Si_FR.UPF
     MD5 check sum: 0c20cc1f09e72bc250a06fb316886f38
     Pseudo is Norm-conserving, Zval =  4.0
     Generated using "atomic" code by A. Dal Corso v.6.0 svn rev. 13079
     Using radial grid of 1141 points,  3 beta functions with: 
                l(1) =   0
                l(2) =   1
                l(3) =   1

     atomic species   valence    mass     pseudopotential
        Si             4.00     1.00000     Si( 1.00)

     48 Sym. Ops., with inversion, found (36 have fractional translation)



   Cartesian axes

     site n.     atom                  positions (alat units)
         1           Si  tau(   1) = (  -0.1767767  -0.1767767  -0.1767767  )
         2           Si  tau(   2) = (   0.1767767   0.1767767   0.1767767  )

     number of k points=  1000

     Number of k-points >= 100: set verbosity='high' to print them.

     Dense  grid:     4573 G-vectors     FFT dimensions: (  24,  24,  24)

     Estimated max dynamical RAM per process >      12.40 MB

     Estimated total dynamical RAM >     396.88 MB

     The potential is recalculated from file :
     ./silicon.save/charge-density

     Starting wfcs are   16 randomized atomic wfcs

     Band Structure Calculation
     Davidson diagonalization with overlap

     ethr =  1.25E-12,  avg # of iterations = 25.5

     total cpu time spent up to now is        9.5 secs

     End of band structure calculation

     Number of k-points >= 100: set verbosity='high' to print the bands.

     Writing output data file silicon.save/
 
     init_run     :      0.07s CPU      0.10s WALL (       1 calls)
     electrons    :      6.74s CPU      6.92s WALL (       1 calls)

     Called by init_run:
     wfcinit      :      0.00s CPU      0.00s WALL (       1 calls)
     potinit      :      0.00s CPU      0.01s WALL (       1 calls)
     hinit0       :      0.06s CPU      0.09s WALL (       1 calls)

     Called by electrons:
     c_bands      :      6.73s CPU      6.92s WALL (       1 calls)
     v_of_rho     :      0.00s CPU      0.00s WALL (       1 calls)

     Called by c_bands:
     init_us_2    :      0.00s CPU      0.00s WALL (      32 calls)
     cegterg      :      5.17s CPU      5.28s WALL (      62 calls)

     Called by sum_band:

     Called by *egterg:
     h_psi        :      4.57s CPU      4.68s WALL (    1026 calls)
     g_psi        :      0.08s CPU      0.08s WALL (     932 calls)
     cdiaghg      :      0.31s CPU      0.33s WALL (     964 calls)

     Called by h_psi:
     h_psi:pot    :      4.54s CPU      4.66s WALL (    1026 calls)
     h_psi:calbec :      0.06s CPU      0.08s WALL (    1026 calls)
     vloc_psi     :      4.42s CPU      4.51s WALL (    1026 calls)
     add_vuspsi   :      0.05s CPU      0.05s WALL (    1026 calls)

     General routines
     calbec       :      0.06s CPU      0.08s WALL (    1026 calls)
     fft          :      0.00s CPU      0.03s WALL (       6 calls)
     fftw         :      3.78s CPU      3.87s WALL (   30316 calls)
 
     Parallel routines
 
     PWSCF        :      9.56s CPU     10.64s WALL

 
   This run was terminated on:  13:53:34  12Apr2021            

=------------------------------------------------------------------------------=
   JOB DONE.
=------------------------------------------------------------------------------=
