
     Program PWSCF v.5.0.2 (svn rev. 9656) starts on 26Jun2013 at 22:35: 4 

     This program is part of the open-source Quantum ESPRESSO suite
     for quantum simulation of materials; please cite
         "P. Giannozzi et al., J. Phys.:Condens. Matter 21 395502 (2009);
          URL http://www.quantum-espresso.org", 
     in publications or presentations arising from this work. More details at
     http://www.quantum-espresso.org/quote.php

     Parallel version (MPI), running on   120 processors
     K-points division:     npool     =      15
     R & G space division:  proc/nbgrp/npool/nimage =       8

     Current dimensions of program PWSCF are:
     Max number of different atomic species (ntypx) = 10
     Max number of k-points (npk) =  40000
     Max angular momentum in pseudopotentials (lmaxx) =  3
     Waiting for input...
     Reading input from standard input

     Atomic positions and unit cell read from directory:
     ./Zn2O2.save/
 

     Subspace diagonalization in iterative solution of the eigenvalue problem:
     scalapack distributed-memory algorithm (size of sub-group:  2*  2 procs)


   Info: using nr1, nr2, nr3 values from input
 
     Parallelization info
     --------------------
     sticks:   dense  smooth     PW     G-vecs:    dense   smooth      PW
     Min         519     519    140                43359    43359    6062
     Max         520     520    141                43366    43366    6067
     Sum        4153    4153   1123               346889   346889   48515
 


     bravais-lattice index     =            0
     lattice parameter (alat)  =       1.8897  a.u.
     unit-cell volume          =     320.9943 (a.u.)^3
     number of atoms/cell      =            4
     number of atomic types    =            2
     number of electrons       =        52.00
     number of Kohn-Sham states=           52
     kinetic-energy cutoff     =     400.0000  Ry
     charge density cutoff     =    1600.0000  Ry
     Exchange-correlation      = SLA+PW ( 1 4 0 0 0)
     EXX-fraction              =        0.00

     celldm(1)=   1.889726  celldm(2)=   0.000000  celldm(3)=   0.000000
     celldm(4)=   0.000000  celldm(5)=   0.000000  celldm(6)=   0.000000

     crystal axes: (cart. coord. in units of alat)
               a(1) = (   3.250000   0.000000   0.000000 )  
               a(2) = (  -1.625000   2.814583   0.000000 )  
               a(3) = (   0.000000   0.000000   5.200000 )  

     reciprocal axes: (cart. coord. in units 2 pi/alat)
               b(1) = (  0.307692  0.177646  0.000000 )  
               b(2) = (  0.000000  0.355292  0.000000 )  
               b(3) = (  0.000000  0.000000  0.192308 )  


     PseudoPot. # 1 for Zn read from file:
     ../../0_pp/Zn.pw-spn-nc.UPF
     MD5 check sum: 9a837cc8ef69fdaee1504d3748345681
     Pseudo is Norm-conserving + core correction, Zval = 20.0
     Generated using "atomic" code by A. Dal Corso  v.5.0.2 svn rev. 9656
     Using radial grid of 1201 points,  2 beta functions with: 
                l(1) =   0
                l(2) =   1

     PseudoPot. # 2 for  O read from file:
     ../../0_pp/O.pw-n-nc.UPF
     MD5 check sum: 22ead4914353326b5879bd0c3df232e0
     Pseudo is Norm-conserving + core correction, Zval =  6.0
     Generated using "atomic" code by A. Dal Corso  v.5.0.2 svn rev. 9656
     Using radial grid of 1095 points,  1 beta functions with: 
                l(1) =   0

     atomic species   valence    mass     pseudopotential
        Zn            20.00    65.38000     Zn( 1.00)
        O              6.00    15.99900      O( 1.00)

     12 Sym. Ops. (no inversion) found ( 6 have fractional translation)


                                    s                        frac. trans.

      isym =  1     identity                                     

 cryst.   s( 1) = (     1          0          0      )
                  (     0          1          0      )
                  (     0          0          1      )

 cart.    s( 1) = (  1.0000000  0.0000000  0.0000000 )
                  (  0.0000000  1.0000000  0.0000000 )
                  (  0.0000000  0.0000000  1.0000000 )


      isym =  2     180 deg rotation - cart. axis [0,0,1]        

 cryst.   s( 2) = (    -1          0          0      )    f =(  0.0000000 )
                  (     0         -1          0      )       (  0.0000000 )
                  (     0          0          1      )       ( -0.5000000 )

 cart.    s( 2) = ( -1.0000000  0.0000000  0.0000000 )    f =(  0.0000000 )
                  (  0.0000000 -1.0000000  0.0000000 )       (  0.0000000 )
                  (  0.0000000  0.0000000  1.0000000 )       ( -2.6000000 )


      isym =  3      60 deg rotation - cryst. axis [0,0,1]       

 cryst.   s( 3) = (     1          1          0      )    f =(  0.0000000 )
                  (    -1          0          0      )       (  0.0000000 )
                  (     0          0          1      )       ( -0.5000000 )

 cart.    s( 3) = (  0.5000000 -0.8660254  0.0000000 )    f =(  0.0000000 )
                  (  0.8660254  0.5000000  0.0000000 )       (  0.0000000 )
                  (  0.0000000  0.0000000  1.0000000 )       ( -2.6000000 )


      isym =  4      60 deg rotation - cryst. axis [0,0,-1]      

 cryst.   s( 4) = (     0         -1          0      )    f =(  0.0000000 )
                  (     1          1          0      )       (  0.0000000 )
                  (     0          0          1      )       ( -0.5000000 )

 cart.    s( 4) = (  0.5000000  0.8660254  0.0000000 )    f =(  0.0000000 )
                  ( -0.8660254  0.5000000  0.0000000 )       (  0.0000000 )
                  (  0.0000000  0.0000000  1.0000000 )       ( -2.6000000 )


      isym =  5     120 deg rotation - cryst. axis [0,0,1]       

 cryst.   s( 5) = (     0          1          0      )
                  (    -1         -1          0      )
                  (     0          0          1      )

 cart.    s( 5) = ( -0.5000000 -0.8660254  0.0000000 )
                  (  0.8660254 -0.5000000  0.0000000 )
                  (  0.0000000  0.0000000  1.0000000 )


      isym =  6     120 deg rotation - cryst. axis [0,0,-1]      

 cryst.   s( 6) = (    -1         -1          0      )
                  (     1          0          0      )
                  (     0          0          1      )

 cart.    s( 6) = ( -0.5000000  0.8660254  0.0000000 )
                  ( -0.8660254 -0.5000000  0.0000000 )
                  (  0.0000000  0.0000000  1.0000000 )


      isym =  7     inv. 180 deg rotation - cart. axis [0,1,0]   

 cryst.   s( 7) = (     1          0          0      )    f =(  0.0000000 )
                  (    -1         -1          0      )       (  0.0000000 )
                  (     0          0          1      )       ( -0.5000000 )

 cart.    s( 7) = (  1.0000000  0.0000000  0.0000000 )    f =(  0.0000000 )
                  (  0.0000000 -1.0000000  0.0000000 )       (  0.0000000 )
                  (  0.0000000  0.0000000  1.0000000 )       ( -2.6000000 )


      isym =  8     inv. 180 deg rotation - cart. axis [1,0,0]   

 cryst.   s( 8) = (    -1          0          0      )
                  (     1          1          0      )
                  (     0          0          1      )

 cart.    s( 8) = ( -1.0000000  0.0000000  0.0000000 )
                  (  0.0000000  1.0000000  0.0000000 )
                  (  0.0000000  0.0000000  1.0000000 )


      isym =  9     inv. 180 deg rotation - cryst. axis [1,-1,0] 

 cryst.   s( 9) = (     0          1          0      )    f =(  0.0000000 )
                  (     1          0          0      )       (  0.0000000 )
                  (     0          0          1      )       ( -0.5000000 )

 cart.    s( 9) = ( -0.5000000  0.8660254  0.0000000 )    f =(  0.0000000 )
                  (  0.8660254  0.5000000  0.0000000 )       (  0.0000000 )
                  (  0.0000000  0.0000000  1.0000000 )       ( -2.6000000 )


      isym = 10     inv. 180 deg rotation - cryst. axis [2,1,0]  

 cryst.   s(10) = (    -1         -1          0      )    f =(  0.0000000 )
                  (     0          1          0      )       (  0.0000000 )
                  (     0          0          1      )       ( -0.5000000 )

 cart.    s(10) = ( -0.5000000 -0.8660254  0.0000000 )    f =(  0.0000000 )
                  ( -0.8660254  0.5000000  0.0000000 )       (  0.0000000 )
                  (  0.0000000  0.0000000  1.0000000 )       ( -2.6000000 )


      isym = 11     inv. 180 deg rotation - cryst. axis [0,1,0]  

 cryst.   s(11) = (     1          1          0      )
                  (     0         -1          0      )
                  (     0          0          1      )

 cart.    s(11) = (  0.5000000  0.8660254  0.0000000 )
                  (  0.8660254 -0.5000000  0.0000000 )
                  (  0.0000000  0.0000000  1.0000000 )


      isym = 12     inv. 180 deg rotation - cryst. axis [1,1,0]  

 cryst.   s(12) = (     0         -1          0      )
                  (    -1          0          0      )
                  (     0          0          1      )

 cart.    s(12) = (  0.5000000 -0.8660254  0.0000000 )
                  ( -0.8660254 -0.5000000  0.0000000 )
                  (  0.0000000  0.0000000  1.0000000 )


     point group C_6v (6mm) 
     there are  6 classes
     the character table:

       E     2C6   2C3   C2    3s_v  3s_d 
A_1    1.00  1.00  1.00  1.00  1.00  1.00
A_2    1.00  1.00  1.00  1.00 -1.00 -1.00
B_1    1.00 -1.00  1.00 -1.00  1.00 -1.00
B_2    1.00 -1.00  1.00 -1.00 -1.00  1.00
E_1    2.00  1.00 -1.00 -2.00  0.00  0.00
E_2    2.00 -1.00 -1.00  2.00  0.00  0.00

     the symmetry operations in each class:
     E        1
     C2       2
     2C6      3    4
     2C3      5    6
     3s_v     7    9   10
     3s_d     8   12   11

   Cartesian axes

     site n.     atom                  positions (alat units)
         1           Zn  tau(   1) = (   1.6250000   0.9381942   0.0000000  )
         2           Zn  tau(   2) = (   0.0000000   1.8763884   2.6000000  )
         3           O   tau(   3) = (   1.6250000   0.9381942   3.2136000  )
         4           O   tau(   4) = (   0.0000000   1.8763884   0.6136000  )

   Crystallographic axes

     site n.     atom                  positions (cryst. coord.)
         1           Zn  tau(   1) = (  0.6666667  0.3333333  0.0000000  )
         2           Zn  tau(   2) = (  0.3333333  0.6666667  0.5000000  )
         3           O   tau(   3) = (  0.6666667  0.3333333  0.6180000  )
         4           O   tau(   4) = (  0.3333333  0.6666667  0.1180000  )

     number of k points=    15
                       cart. coord. in units 2pi/alat
        k(    1) = (   0.0000000   0.0000000   0.0000000), wk =   0.0266667
        k(    2) = (   0.0000000   0.0000000   0.0641026), wk =   0.0266667
        k(    3) = (   0.0000000   0.0000000   0.1282051), wk =   0.0266667
        k(    4) = (   0.0000000   0.0710585   0.0000000), wk =   0.1600000
        k(    5) = (   0.0000000   0.0710585   0.0641026), wk =   0.1600000
        k(    6) = (   0.0000000   0.0710585   0.1282051), wk =   0.1600000
        k(    7) = (   0.0000000   0.1421170   0.0000000), wk =   0.1600000
        k(    8) = (   0.0000000   0.1421170   0.0641026), wk =   0.1600000
        k(    9) = (   0.0000000   0.1421170   0.1282051), wk =   0.1600000
        k(   10) = (   0.0615385   0.1065877   0.0000000), wk =   0.1600000
        k(   11) = (   0.0615385   0.1065877   0.0641026), wk =   0.1600000
        k(   12) = (   0.0615385   0.1065877   0.1282051), wk =   0.1600000
        k(   13) = (   0.0615385   0.1776462   0.0000000), wk =   0.1600000
        k(   14) = (   0.0615385   0.1776462   0.0641026), wk =   0.1600000
        k(   15) = (   0.0615385   0.1776462   0.1282051), wk =   0.1600000

                       cryst. coord.
        k(    1) = (   0.0000000   0.0000000   0.0000000), wk =   0.0266667
        k(    2) = (   0.0000000   0.0000000   0.3333333), wk =   0.0266667
        k(    3) = (   0.0000000   0.0000000   0.6666667), wk =   0.0266667
        k(    4) = (   0.0000000   0.2000000   0.0000000), wk =   0.1600000
        k(    5) = (   0.0000000   0.2000000   0.3333333), wk =   0.1600000
        k(    6) = (   0.0000000   0.2000000   0.6666667), wk =   0.1600000
        k(    7) = (   0.0000000   0.4000000   0.0000000), wk =   0.1600000
        k(    8) = (   0.0000000   0.4000000   0.3333333), wk =   0.1600000
        k(    9) = (   0.0000000   0.4000000   0.6666667), wk =   0.1600000
        k(   10) = (   0.2000000   0.2000000   0.0000000), wk =   0.1600000
        k(   11) = (   0.2000000   0.2000000   0.3333333), wk =   0.1600000
        k(   12) = (   0.2000000   0.2000000   0.6666667), wk =   0.1600000
        k(   13) = (   0.2000000   0.4000000   0.0000000), wk =   0.1600000
        k(   14) = (   0.2000000   0.4000000   0.3333333), wk =   0.1600000
        k(   15) = (   0.2000000   0.4000000   0.6666667), wk =   0.1600000

     Dense  grid:   346889 G-vectors     FFT dimensions: (  80,  80, 128)

     Largest allocated arrays     est. size (Mb)     dimensions
        Kohn-Sham Wavefunctions         4.31 Mb     (   5436,   52)
        NL pseudopotentials             0.83 Mb     (   5436,   10)
        Each V/rho on FFT grid          1.56 Mb     ( 102400)
        Each G-vector array             0.33 Mb     (  43361)
        G-vector shells                 0.09 Mb     (  11381)
     Largest temporary arrays     est. size (Mb)     dimensions
        Auxiliary wavefunctions        17.25 Mb     (   5436,  208)
        Each subspace H/S matrix        0.17 Mb     ( 104, 104)
        Each <psi_i|beta_j> matrix      0.01 Mb     (     10,   52)
     writing wfc files to a dedicated directory

     Check: negative/imaginary core charge=   -0.000103    0.000000

     The potential is recalculated from file :
     ./Zn2O2.save/charge-density.dat

     Starting wfc are   34 randomized atomic wfcs

     total cpu time spent up to now is        3.4 secs

     per-process dynamical memory:    36.0 Mb

     Band Structure Calculation
     Davidson diagonalization with overlap

     Computing kpt #:     1
     total cpu time spent up to now is       33.2 secs

     ethr =  1.92E-13,  avg # of iterations = 26.6

     total cpu time spent up to now is       33.3 secs

     End of band structure calculation

          k = 0.0000 0.0000 0.0000     band energies (ev):

  -114.1639-114.1637 -68.8297 -68.8264 -68.8171 -68.8171 -68.8165 -68.8165
    -9.2949  -8.5166   2.7034   2.7034   2.7864   2.8381   2.8864   2.8864
     3.8680   3.8680   4.0842   4.0842   4.3847   7.7013   7.7013   8.4071
     8.4966   8.4966   9.2408  13.5605  16.6352  21.1733  21.1733  22.4465
    22.4470  22.4470  24.7906  26.5416  26.5416  28.1563  28.1752  28.1752
    29.5314  31.4130  33.2224  33.2224  35.9691  36.7655  36.7655  37.1895
    39.5195  39.5195  42.9406  42.9406

          k = 0.0000 0.0000 0.0641     band energies (ev):

  -114.1639-114.1638 -68.8289 -68.8272 -68.8170 -68.8170 -68.8167 -68.8167
    -9.1090  -8.7200   2.5520   2.6169   2.7299   2.7299   2.8203   2.8203
     3.9391   3.9391   4.0485   4.0485   5.4172   7.0447   7.9033   7.9033
     8.3015   8.3015  10.8938  12.7555  17.4105  19.8559  21.2427  21.2427
    21.8315  21.8315  25.7156  27.2946  27.6125  27.6125  28.9759  28.9759
    31.8928  32.5194  32.5194  32.8517  34.8979  34.8979  35.5438  37.7500
    39.9327  39.9327  40.6080  40.6080

          k = 0.0000 0.0000 0.1282     band energies (ev):

  -114.1639-114.1638 -68.8289 -68.8272 -68.8170 -68.8170 -68.8167 -68.8167
    -9.1090  -8.7200   2.5520   2.6169   2.7299   2.7299   2.8203   2.8203
     3.9391   3.9391   4.0485   4.0485   5.4172   7.0447   7.9033   7.9033
     8.3015   8.3015  10.8938  12.7555  17.4105  19.8559  21.2427  21.2427
    21.8315  21.8315  25.7156  27.2946  27.6125  27.6125  28.9759  28.9759
    31.8928  32.5194  32.5194  32.8517  34.8979  34.8979  35.5438  37.7500
    39.9327  39.9327  40.6080  40.6080

          k = 0.0000 0.0711 0.0000     band energies (ev):

  -114.1639-114.1637 -68.8294 -68.8266 -68.8178 -68.8174 -68.8173 -68.8167
    -9.0780  -8.4272   2.5129   2.8180   2.8186   2.9373   3.0601   3.1468
     3.7856   3.8709   4.1007   4.2719   4.3514   6.4462   7.1136   7.2061
     8.1369   8.2196  11.1099  14.9122  16.5863  18.6155  20.4731  21.5409
    22.0745  22.6498  23.7578  25.7398  26.6764  29.4592  30.9087  31.5591
    31.6262  32.1622  33.5989  35.2014  35.6419  36.5254  36.7728  37.7290
    38.2759  39.5539  40.5936  43.9689

          k = 0.0000 0.0711 0.0641     band energies (ev):

  -114.1638-114.1637 -68.8287 -68.8273 -68.8177 -68.8174 -68.8172 -68.8168
    -8.9186  -8.5928   2.4196   2.5054   2.8603   2.8862   2.9598   2.9795
     3.9115   3.9370   4.0522   4.0919   5.4851   6.4958   6.9355   7.4677
     7.8022   7.9734  11.9698  13.7940  17.3268  18.6931  19.9535  20.6154
    21.5897  22.0742  24.6736  26.7472  27.3528  29.8348  30.4382  30.8069
    31.7341  32.2528  33.5498  35.4023  35.4784  36.2374  36.9765  38.4290
    39.4210  39.9012  40.8719  41.7424

          k = 0.0000 0.0711 0.1282     band energies (ev):

  -114.1638-114.1637 -68.8287 -68.8273 -68.8177 -68.8174 -68.8172 -68.8168
    -8.9186  -8.5928   2.4196   2.5054   2.8603   2.8862   2.9598   2.9795
     3.9115   3.9370   4.0522   4.0919   5.4851   6.4958   6.9355   7.4677
     7.8022   7.9734  11.9698  13.7940  17.3268  18.6931  19.9535  20.6154
    21.5897  22.0742  24.6736  26.7472  27.3528  29.8348  30.4382  30.8069
    31.7341  32.2528  33.5498  35.4023  35.4784  36.2374  36.9765  38.4290
    39.4210  39.9012  40.8719  41.7424

          k = 0.0000 0.1421 0.0000     band energies (ev):

  -114.1638-114.1637 -68.8286 -68.8271 -68.8190 -68.8186 -68.8177 -68.8169
    -8.6601  -8.3249   2.4310   2.7292   2.9559   3.2504   3.4188   3.4471
     3.8614   3.9945   4.1266   4.3457   4.5235   5.0619   5.8099   6.3627
     7.4122   7.7229  13.4491  15.8180  16.0302  16.8939  19.1274  20.6237
    21.6937  22.4864  24.2288  26.8408  27.7734  28.0421  31.6567  32.8069
    34.0942  34.4939  35.5727  36.0080  37.0224  37.3411  37.8313  39.3523
    39.8124  40.3427  41.2372  43.8616

          k = 0.0000 0.1421 0.0641     band energies (ev):

  -114.1637-114.1637 -68.8283 -68.8276 -68.8188 -68.8186 -68.8175 -68.8171
    -8.5703  -8.4021   2.3160   2.4282   3.0493   3.1761   3.2565   3.2777
     3.9877   4.0184   4.0796   4.1896   4.7973   5.1422   6.4929   6.7337
     7.4049   7.4763  13.5115  14.6392  16.7688  17.0013  19.1126  20.5736
    21.8424  22.2424  23.2574  26.1864  29.2461  29.7560  30.0294  32.3435
    33.2325  34.7757  34.8804  35.4302  37.6694  38.4253  39.4728  39.5166
    40.5304  41.7492  42.0939  43.4082

          k = 0.0000 0.1421 0.1282     band energies (ev):

  -114.1637-114.1637 -68.8283 -68.8276 -68.8188 -68.8186 -68.8175 -68.8171
    -8.5703  -8.4021   2.3160   2.4282   3.0493   3.1761   3.2565   3.2777
     3.9877   4.0184   4.0796   4.1896   4.7973   5.1422   6.4929   6.7337
     7.4049   7.4763  13.5115  14.6392  16.7688  17.0013  19.1126  20.5736
    21.8424  22.2424  23.2574  26.1864  29.2461  29.7560  30.0294  32.3435
    33.2325  34.7757  34.8804  35.4302  37.6694  38.4253  39.4728  39.5166
    40.5304  41.7492  42.0939  43.4082

          k = 0.0615 0.1066 0.0000     band energies (ev):

  -114.1638-114.1637 -68.8288 -68.8270 -68.8185 -68.8184 -68.8177 -68.8171
    -8.7549  -8.3343   2.5642   2.7051   2.9979   3.0515   3.3636   3.4687
     3.7429   3.9120   4.1224   4.3362   4.6079   5.6587   5.7738   6.2926
     7.5518   7.6457  13.0639  16.0374  16.8599  17.2736  19.2267  20.2374
    20.3902  23.2981  23.8782  25.7211  29.8580  30.2414  30.2691  31.8274
    33.0137  34.2263  34.7175  35.8765  36.0285  36.6641  37.3423  37.9747
    40.4500  41.8553  41.9633  43.4384

          k = 0.0615 0.1066 0.0641     band energies (ev):

  -114.1638-114.1637 -68.8284 -68.8275 -68.8184 -68.8183 -68.8176 -68.8173
    -8.6457  -8.4348   2.4296   2.5118   2.9702   2.9840   3.1554   3.2373
     3.9168   4.0004   4.0863   4.1873   5.1896   5.6525   6.4648   6.4745
     7.2077   7.6052  13.4591  14.8941  17.1499  17.4486  19.2862  19.3101
    20.9944  23.0346  24.5178  25.9048  28.3723  28.8552  31.3845  31.9815
    33.2775  33.9336  35.2715  35.5435  37.0317  38.1262  38.3041  38.5912
    39.6599  42.2760  42.4298  43.3755

          k = 0.0615 0.1066 0.1282     band energies (ev):

  -114.1638-114.1637 -68.8284 -68.8275 -68.8184 -68.8183 -68.8176 -68.8173
    -8.6457  -8.4348   2.4296   2.5118   2.9702   2.9840   3.1554   3.2373
     3.9168   4.0004   4.0863   4.1873   5.1896   5.6525   6.4648   6.4745
     7.2077   7.6052  13.4591  14.8941  17.1499  17.4486  19.2862  19.3101
    20.9944  23.0346  24.5178  25.9048  28.3723  28.8552  31.3845  31.9815
    33.2775  33.9336  35.2715  35.5435  37.0317  38.1262  38.3041  38.5912
    39.6599  42.2760  42.4298  43.3755

          k = 0.0615 0.1776 0.0000     band energies (ev):

  -114.1637-114.1637 -68.8282 -68.8275 -68.8190 -68.8186 -68.8182 -68.8174
    -8.4871  -8.3367   2.6339   2.9492   3.0856   3.1983   3.5202   3.5831
     3.8697   3.9330   4.1386   4.1630   4.7665   5.0041   5.1000   6.1440
     6.8492   7.1451  15.0896  15.9884  16.0748  16.8209  19.0252  19.8487
    20.9911  21.6842  23.6963  28.3185  28.8443  30.1463  31.0335  32.0274
    34.0324  34.6492  35.3024  35.4277  36.2731  36.4088  37.3721  37.9991
    42.5613  42.8300  43.7142  45.4484

          k = 0.0615 0.1776 0.0641     band energies (ev):

  -114.1637-114.1637 -68.8281 -68.8277 -68.8188 -68.8186 -68.8180 -68.8176
    -8.4409  -8.3653   2.5470   2.6481   2.9503   3.1730   3.3863   3.3918
     3.9488   3.9741   4.2608   4.2957   4.6561   4.8231   5.6936   6.5651
     6.8571   7.3245  14.9223  15.5783  16.5389  17.0300  17.9288  18.7369
    22.1413  22.8620  24.4588  26.0484  27.8986  29.8781  31.0198  31.5270
    33.9477  34.4269  35.5160  36.3773  37.3389  38.8607  39.3532  39.5821
    41.9651  42.8062  43.6432  44.4864

          k = 0.0615 0.1776 0.1282     band energies (ev):

  -114.1637-114.1637 -68.8281 -68.8277 -68.8188 -68.8186 -68.8180 -68.8176
    -8.4409  -8.3653   2.5470   2.6481   2.9503   3.1730   3.3863   3.3918
     3.9488   3.9741   4.2608   4.2957   4.6561   4.8231   5.6936   6.5651
     6.8571   7.3245  14.9223  15.5783  16.5389  17.0300  17.9288  18.7369
    22.1413  22.8620  24.4588  26.0484  27.8986  29.8781  31.0198  31.5270
    33.9477  34.4269  35.5160  36.3773  37.3389  38.8607  39.3532  39.5821
    41.9651  42.8062  43.6432  44.4864

     Writing output data file Zn2O2.save
 
     init_run     :      2.20s CPU      2.45s WALL (       1 calls)
     electrons    :     29.64s CPU     29.96s WALL (       1 calls)

     Called by init_run:
     wfcinit      :      0.00s CPU      0.00s WALL (       1 calls)
     potinit      :      0.28s CPU      0.34s WALL (       1 calls)

     Called by electrons:
     c_bands      :     29.60s CPU     29.87s WALL (       1 calls)
     v_of_rho     :      0.05s CPU      0.05s WALL (       1 calls)
     v_h          :      0.02s CPU      0.02s WALL (       1 calls)
     v_xc         :      0.03s CPU      0.03s WALL (       1 calls)

     Called by c_bands:
     init_us_2    :      0.00s CPU      0.00s WALL (       1 calls)
     cegterg      :     18.46s CPU     18.62s WALL (       1 calls)

     Called by sum_band:

     Called by *egterg:
     h_psi        :     15.82s CPU     15.87s WALL (      21 calls)
     g_psi        :      0.10s CPU      0.09s WALL (      19 calls)
     cdiaghg      :      0.58s CPU      0.60s WALL (      20 calls)
     cegterg:over :      1.28s CPU      1.27s WALL (      19 calls)
     cegterg:upda :      1.18s CPU      1.24s WALL (      19 calls)
     cegterg:last :      0.57s CPU      0.57s WALL (       4 calls)
     cdiaghg:chol :      0.05s CPU      0.03s WALL (      20 calls)
     cdiaghg:inve :      0.00s CPU      0.01s WALL (      20 calls)
     cdiaghg:para :      0.07s CPU      0.10s WALL (      40 calls)

     Called by h_psi:
     h_psi:vloc   :     15.57s CPU     15.62s WALL (      21 calls)
     h_psi:vnl    :      0.16s CPU      0.16s WALL (      21 calls)
     add_vuspsi   :      0.07s CPU      0.08s WALL (      21 calls)

     General routines
     calbec       :      0.08s CPU      0.08s WALL (      21 calls)
     fft          :      0.06s CPU      0.07s WALL (       4 calls)
     fftw         :     13.84s CPU     13.67s WALL (    1336 calls)
     davcio       :      0.01s CPU      0.05s WALL (       2 calls)
 
     Parallel routines
     fft_scatter  :      5.08s CPU      4.40s WALL (    1340 calls)
 
     PWSCF        :    33.00s CPU        35.19s WALL

 
   This run was terminated on:  22:35:39  26Jun2013            

=------------------------------------------------------------------------------=
   JOB DONE.
=------------------------------------------------------------------------------=
Application 2755680 resources: utime ~4121s, stime ~63s, Rss ~87432, inblocks ~488630, outblocks ~2530775
