TACC:  Starting up job 7666456 
TACC:  Starting parallel tasks... 

     Program PWSCF v.6.4 starts on  1May2021 at 15:10:17 

     This program is part of the open-source Quantum ESPRESSO suite
     for quantum simulation of materials; please cite
         "P. Giannozzi et al., J. Phys.:Condens. Matter 21 395502 (2009);
         "P. Giannozzi et al., J. Phys.:Condens. Matter 29 465901 (2017);
          URL http://www.quantum-espresso.org", 
     in publications or presentations arising from this work. More details at
     http://www.quantum-espresso.org/quote

     Parallel version (MPI), running on    64 processors

     MPI processes distributed on     1 nodes
     K-points division:     npool     =      16
     R & G space division:  proc/nbgrp/npool/nimage =       4
     Waiting for input...
     Reading input from standard input

     Current dimensions of program PWSCF are:
     Max number of different atomic species (ntypx) = 10
     Max number of k-points (npk) =  40000
     Max angular momentum in pseudopotentials (lmaxx) =  3

     Subspace diagonalization in iterative solution of the eigenvalue problem:
     a serial algorithm will be used

 
     Parallelization info
     --------------------
     sticks:   dense  smooth     PW     G-vecs:    dense   smooth      PW
     Min         445     445    126                14153    14153    2102
     Max         446     446    127                14156    14156    2103
     Sum        1781    1781    505                56619    56619    8409
 


     bravais-lattice index     =            0
     lattice parameter (alat)  =      10.5806  a.u.
     unit-cell volume          =    1184.4808 (a.u.)^3
     number of atoms/cell      =            5
     number of atomic types    =            3
     number of electrons       =        44.00
     number of Kohn-Sham states=           44
     kinetic-energy cutoff     =      50.0000  Ry
     charge density cutoff     =     200.0000  Ry
     convergence threshold     =      1.0E-06
     mixing beta               =       0.7000
     number of iterations used =            8  plain     mixing
     Exchange-correlation      = PBE ( 1  4  3  4 0 0)
     Non magnetic calculation with spin-orbit


     celldm(1)=  10.580577  celldm(2)=   0.000000  celldm(3)=   0.000000
     celldm(4)=   0.000000  celldm(5)=   0.000000  celldm(6)=   0.000000

     crystal axes: (cart. coord. in units of alat)
               a(1) = (   1.000000   0.000000   0.000000 )  
               a(2) = (   0.000000   1.000000   0.000000 )  
               a(3) = (   0.000000   0.000000   1.000000 )  

     reciprocal axes: (cart. coord. in units 2 pi/alat)
               b(1) = (  1.000000  0.000000  0.000000 )  
               b(2) = (  0.000000  1.000000  0.000000 )  
               b(3) = (  0.000000  0.000000  1.000000 )  


     PseudoPot. # 1 for Cs read from file:
     ../pseudopotentials/Cs.upf
     MD5 check sum: 0949d7fbeea01e664226101e754fa92a
     Pseudo is Norm-conserving + core correction, Zval =  9.0
     Generated using ONCVPSP code by D. R. Hamann
     Using radial grid of 2414 points, 14 beta functions with: 
                l(1) =   0
                l(2) =   0
                l(3) =   1
                l(4) =   1
                l(5) =   1
                l(6) =   1
                l(7) =   2
                l(8) =   2
                l(9) =   2
               l(10) =   2
               l(11) =   3
               l(12) =   3
               l(13) =   3
               l(14) =   3

     PseudoPot. # 2 for Pb read from file:
     ../pseudopotentials/Pb.upf
     MD5 check sum: 73abbbd201951038fc1bdacebad68d2f
     Pseudo is Norm-conserving + core correction, Zval = 14.0
     Generated using ONCVPSP code by D. R. Hamann
     Using radial grid of 1782 points, 10 beta functions with: 
                l(1) =   0
                l(2) =   0
                l(3) =   1
                l(4) =   1
                l(5) =   1
                l(6) =   1
                l(7) =   2
                l(8) =   2
                l(9) =   2
               l(10) =   2

     PseudoPot. # 3 for Cl read from file:
     ../pseudopotentials/Cl.upf
     MD5 check sum: b1ddb435c2952724bdf458cc656d2c80
     Pseudo is Norm-conserving + core correction, Zval =  7.0
     Generated using ONCVPSP code by D. R. Hamann
     Using radial grid of 1028 points, 10 beta functions with: 
                l(1) =   0
                l(2) =   0
                l(3) =   1
                l(4) =   1
                l(5) =   1
                l(6) =   1
                l(7) =   2
                l(8) =   2
                l(9) =   2
               l(10) =   2

     atomic species   valence    mass     pseudopotential
        Cs             9.00     1.00000     Cs( 1.00)
        Pb            14.00     1.00000     Pb( 1.00)
        Cl             7.00     1.00000     Cl( 1.00)

     48 Sym. Ops., with inversion, found


                                    s                        frac. trans.

      isym =  1     identity                                     

 cryst.   s( 1) = (     1          0          0      )
                  (     0          1          0      )
                  (     0          0          1      )

 cart.    s( 1) = (  1.0000000  0.0000000  0.0000000 )
                  (  0.0000000  1.0000000  0.0000000 )
                  (  0.0000000  0.0000000  1.0000000 )


      isym =  2     180 deg rotation - cart. axis [0,0,1]        

 cryst.   s( 2) = (    -1          0          0      )
                  (     0         -1          0      )
                  (     0          0          1      )

 cart.    s( 2) = ( -1.0000000  0.0000000  0.0000000 )
                  (  0.0000000 -1.0000000  0.0000000 )
                  (  0.0000000  0.0000000  1.0000000 )


      isym =  3     180 deg rotation - cart. axis [0,1,0]        

 cryst.   s( 3) = (    -1          0          0      )
                  (     0          1          0      )
                  (     0          0         -1      )

 cart.    s( 3) = ( -1.0000000  0.0000000  0.0000000 )
                  (  0.0000000  1.0000000  0.0000000 )
                  (  0.0000000  0.0000000 -1.0000000 )


      isym =  4     180 deg rotation - cart. axis [1,0,0]        

 cryst.   s( 4) = (     1          0          0      )
                  (     0         -1          0      )
                  (     0          0         -1      )

 cart.    s( 4) = (  1.0000000  0.0000000  0.0000000 )
                  (  0.0000000 -1.0000000  0.0000000 )
                  (  0.0000000  0.0000000 -1.0000000 )


      isym =  5     180 deg rotation - cart. axis [1,1,0]        

 cryst.   s( 5) = (     0          1          0      )
                  (     1          0          0      )
                  (     0          0         -1      )

 cart.    s( 5) = (  0.0000000  1.0000000  0.0000000 )
                  (  1.0000000  0.0000000  0.0000000 )
                  (  0.0000000  0.0000000 -1.0000000 )


      isym =  6     180 deg rotation - cart. axis [1,-1,0]       

 cryst.   s( 6) = (     0         -1          0      )
                  (    -1          0          0      )
                  (     0          0         -1      )

 cart.    s( 6) = (  0.0000000 -1.0000000  0.0000000 )
                  ( -1.0000000  0.0000000  0.0000000 )
                  (  0.0000000  0.0000000 -1.0000000 )


      isym =  7      90 deg rotation - cart. axis [0,0,-1]       

 cryst.   s( 7) = (     0         -1          0      )
                  (     1          0          0      )
                  (     0          0          1      )

 cart.    s( 7) = (  0.0000000  1.0000000  0.0000000 )
                  ( -1.0000000  0.0000000  0.0000000 )
                  (  0.0000000  0.0000000  1.0000000 )


      isym =  8      90 deg rotation - cart. axis [0,0,1]        

 cryst.   s( 8) = (     0          1          0      )
                  (    -1          0          0      )
                  (     0          0          1      )

 cart.    s( 8) = (  0.0000000 -1.0000000  0.0000000 )
                  (  1.0000000  0.0000000  0.0000000 )
                  (  0.0000000  0.0000000  1.0000000 )


      isym =  9     180 deg rotation - cart. axis [1,0,1]        

 cryst.   s( 9) = (     0          0          1      )
                  (     0         -1          0      )
                  (     1          0          0      )

 cart.    s( 9) = (  0.0000000  0.0000000  1.0000000 )
                  (  0.0000000 -1.0000000  0.0000000 )
                  (  1.0000000  0.0000000  0.0000000 )


      isym = 10     180 deg rotation - cart. axis [-1,0,1]       

 cryst.   s(10) = (     0          0         -1      )
                  (     0         -1          0      )
                  (    -1          0          0      )

 cart.    s(10) = (  0.0000000  0.0000000 -1.0000000 )
                  (  0.0000000 -1.0000000  0.0000000 )
                  ( -1.0000000  0.0000000  0.0000000 )


      isym = 11      90 deg rotation - cart. axis [0,1,0]        

 cryst.   s(11) = (     0          0         -1      )
                  (     0          1          0      )
                  (     1          0          0      )

 cart.    s(11) = (  0.0000000  0.0000000  1.0000000 )
                  (  0.0000000  1.0000000  0.0000000 )
                  ( -1.0000000  0.0000000  0.0000000 )


      isym = 12      90 deg rotation - cart. axis [0,-1,0]       

 cryst.   s(12) = (     0          0          1      )
                  (     0          1          0      )
                  (    -1          0          0      )

 cart.    s(12) = (  0.0000000  0.0000000 -1.0000000 )
                  (  0.0000000  1.0000000  0.0000000 )
                  (  1.0000000  0.0000000  0.0000000 )


      isym = 13     180 deg rotation - cart. axis [0,1,1]        

 cryst.   s(13) = (    -1          0          0      )
                  (     0          0          1      )
                  (     0          1          0      )

 cart.    s(13) = ( -1.0000000  0.0000000  0.0000000 )
                  (  0.0000000  0.0000000  1.0000000 )
                  (  0.0000000  1.0000000  0.0000000 )


      isym = 14     180 deg rotation - cart. axis [0,1,-1]       

 cryst.   s(14) = (    -1          0          0      )
                  (     0          0         -1      )
                  (     0         -1          0      )

 cart.    s(14) = ( -1.0000000  0.0000000  0.0000000 )
                  (  0.0000000  0.0000000 -1.0000000 )
                  (  0.0000000 -1.0000000  0.0000000 )


      isym = 15      90 deg rotation - cart. axis [-1,0,0]       

 cryst.   s(15) = (     1          0          0      )
                  (     0          0         -1      )
                  (     0          1          0      )

 cart.    s(15) = (  1.0000000  0.0000000  0.0000000 )
                  (  0.0000000  0.0000000  1.0000000 )
                  (  0.0000000 -1.0000000  0.0000000 )


      isym = 16      90 deg rotation - cart. axis [1,0,0]        

 cryst.   s(16) = (     1          0          0      )
                  (     0          0          1      )
                  (     0         -1          0      )

 cart.    s(16) = (  1.0000000  0.0000000  0.0000000 )
                  (  0.0000000  0.0000000 -1.0000000 )
                  (  0.0000000  1.0000000  0.0000000 )


      isym = 17     120 deg rotation - cart. axis [-1,-1,-1]     

 cryst.   s(17) = (     0          0          1      )
                  (     1          0          0      )
                  (     0          1          0      )

 cart.    s(17) = (  0.0000000  1.0000000  0.0000000 )
                  (  0.0000000  0.0000000  1.0000000 )
                  (  1.0000000  0.0000000  0.0000000 )


      isym = 18     120 deg rotation - cart. axis [-1,1,1]       

 cryst.   s(18) = (     0          0         -1      )
                  (    -1          0          0      )
                  (     0          1          0      )

 cart.    s(18) = (  0.0000000 -1.0000000  0.0000000 )
                  (  0.0000000  0.0000000  1.0000000 )
                  ( -1.0000000  0.0000000  0.0000000 )


      isym = 19     120 deg rotation - cart. axis [1,1,-1]       

 cryst.   s(19) = (     0          0         -1      )
                  (     1          0          0      )
                  (     0         -1          0      )

 cart.    s(19) = (  0.0000000  1.0000000  0.0000000 )
                  (  0.0000000  0.0000000 -1.0000000 )
                  ( -1.0000000  0.0000000  0.0000000 )


      isym = 20     120 deg rotation - cart. axis [1,-1,1]       

 cryst.   s(20) = (     0          0          1      )
                  (    -1          0          0      )
                  (     0         -1          0      )

 cart.    s(20) = (  0.0000000 -1.0000000  0.0000000 )
                  (  0.0000000  0.0000000 -1.0000000 )
                  (  1.0000000  0.0000000  0.0000000 )


      isym = 21     120 deg rotation - cart. axis [1,1,1]        

 cryst.   s(21) = (     0          1          0      )
                  (     0          0          1      )
                  (     1          0          0      )

 cart.    s(21) = (  0.0000000  0.0000000  1.0000000 )
                  (  1.0000000  0.0000000  0.0000000 )
                  (  0.0000000  1.0000000  0.0000000 )


      isym = 22     120 deg rotation - cart. axis [-1,1,-1]      

 cryst.   s(22) = (     0         -1          0      )
                  (     0          0         -1      )
                  (     1          0          0      )

 cart.    s(22) = (  0.0000000  0.0000000  1.0000000 )
                  ( -1.0000000  0.0000000  0.0000000 )
                  (  0.0000000 -1.0000000  0.0000000 )


      isym = 23     120 deg rotation - cart. axis [1,-1,-1]      

 cryst.   s(23) = (     0         -1          0      )
                  (     0          0          1      )
                  (    -1          0          0      )

 cart.    s(23) = (  0.0000000  0.0000000 -1.0000000 )
                  ( -1.0000000  0.0000000  0.0000000 )
                  (  0.0000000  1.0000000  0.0000000 )


      isym = 24     120 deg rotation - cart. axis [-1,-1,1]      

 cryst.   s(24) = (     0          1          0      )
                  (     0          0         -1      )
                  (    -1          0          0      )

 cart.    s(24) = (  0.0000000  0.0000000 -1.0000000 )
                  (  1.0000000  0.0000000  0.0000000 )
                  (  0.0000000 -1.0000000  0.0000000 )


      isym = 25     inversion                                    

 cryst.   s(25) = (    -1          0          0      )
                  (     0         -1          0      )
                  (     0          0         -1      )

 cart.    s(25) = ( -1.0000000  0.0000000  0.0000000 )
                  (  0.0000000 -1.0000000  0.0000000 )
                  (  0.0000000  0.0000000 -1.0000000 )


      isym = 26     inv. 180 deg rotation - cart. axis [0,0,1]   

 cryst.   s(26) = (     1          0          0      )
                  (     0          1          0      )
                  (     0          0         -1      )

 cart.    s(26) = (  1.0000000  0.0000000  0.0000000 )
                  (  0.0000000  1.0000000  0.0000000 )
                  (  0.0000000  0.0000000 -1.0000000 )


      isym = 27     inv. 180 deg rotation - cart. axis [0,1,0]   

 cryst.   s(27) = (     1          0          0      )
                  (     0         -1          0      )
                  (     0          0          1      )

 cart.    s(27) = (  1.0000000  0.0000000  0.0000000 )
                  (  0.0000000 -1.0000000  0.0000000 )
                  (  0.0000000  0.0000000  1.0000000 )


      isym = 28     inv. 180 deg rotation - cart. axis [1,0,0]   

 cryst.   s(28) = (    -1          0          0      )
                  (     0          1          0      )
                  (     0          0          1      )

 cart.    s(28) = ( -1.0000000  0.0000000  0.0000000 )
                  (  0.0000000  1.0000000  0.0000000 )
                  (  0.0000000  0.0000000  1.0000000 )


      isym = 29     inv. 180 deg rotation - cart. axis [1,1,0]   

 cryst.   s(29) = (     0         -1          0      )
                  (    -1          0          0      )
                  (     0          0          1      )

 cart.    s(29) = (  0.0000000 -1.0000000  0.0000000 )
                  ( -1.0000000  0.0000000  0.0000000 )
                  (  0.0000000  0.0000000  1.0000000 )


      isym = 30     inv. 180 deg rotation - cart. axis [1,-1,0]  

 cryst.   s(30) = (     0          1          0      )
                  (     1          0          0      )
                  (     0          0          1      )

 cart.    s(30) = (  0.0000000  1.0000000  0.0000000 )
                  (  1.0000000  0.0000000  0.0000000 )
                  (  0.0000000  0.0000000  1.0000000 )


      isym = 31     inv.  90 deg rotation - cart. axis [0,0,-1]  

 cryst.   s(31) = (     0          1          0      )
                  (    -1          0          0      )
                  (     0          0         -1      )

 cart.    s(31) = (  0.0000000 -1.0000000  0.0000000 )
                  (  1.0000000  0.0000000  0.0000000 )
                  (  0.0000000  0.0000000 -1.0000000 )


      isym = 32     inv.  90 deg rotation - cart. axis [0,0,1]   

 cryst.   s(32) = (     0         -1          0      )
                  (     1          0          0      )
                  (     0          0         -1      )

 cart.    s(32) = (  0.0000000  1.0000000  0.0000000 )
                  ( -1.0000000  0.0000000  0.0000000 )
                  (  0.0000000  0.0000000 -1.0000000 )


      isym = 33     inv. 180 deg rotation - cart. axis [1,0,1]   

 cryst.   s(33) = (     0          0         -1      )
                  (     0          1          0      )
                  (    -1          0          0      )

 cart.    s(33) = (  0.0000000  0.0000000 -1.0000000 )
                  (  0.0000000  1.0000000  0.0000000 )
                  ( -1.0000000  0.0000000  0.0000000 )


      isym = 34     inv. 180 deg rotation - cart. axis [-1,0,1]  

 cryst.   s(34) = (     0          0          1      )
                  (     0          1          0      )
                  (     1          0          0      )

 cart.    s(34) = (  0.0000000  0.0000000  1.0000000 )
                  (  0.0000000  1.0000000  0.0000000 )
                  (  1.0000000  0.0000000  0.0000000 )


      isym = 35     inv.  90 deg rotation - cart. axis [0,1,0]   

 cryst.   s(35) = (     0          0          1      )
                  (     0         -1          0      )
                  (    -1          0          0      )

 cart.    s(35) = (  0.0000000  0.0000000 -1.0000000 )
                  (  0.0000000 -1.0000000  0.0000000 )
                  (  1.0000000  0.0000000  0.0000000 )


      isym = 36     inv.  90 deg rotation - cart. axis [0,-1,0]  

 cryst.   s(36) = (     0          0         -1      )
                  (     0         -1          0      )
                  (     1          0          0      )

 cart.    s(36) = (  0.0000000  0.0000000  1.0000000 )
                  (  0.0000000 -1.0000000  0.0000000 )
                  ( -1.0000000  0.0000000  0.0000000 )


      isym = 37     inv. 180 deg rotation - cart. axis [0,1,1]   

 cryst.   s(37) = (     1          0          0      )
                  (     0          0         -1      )
                  (     0         -1          0      )

 cart.    s(37) = (  1.0000000  0.0000000  0.0000000 )
                  (  0.0000000  0.0000000 -1.0000000 )
                  (  0.0000000 -1.0000000  0.0000000 )


      isym = 38     inv. 180 deg rotation - cart. axis [0,1,-1]  

 cryst.   s(38) = (     1          0          0      )
                  (     0          0          1      )
                  (     0          1          0      )

 cart.    s(38) = (  1.0000000  0.0000000  0.0000000 )
                  (  0.0000000  0.0000000  1.0000000 )
                  (  0.0000000  1.0000000  0.0000000 )


      isym = 39     inv.  90 deg rotation - cart. axis [-1,0,0]  

 cryst.   s(39) = (    -1          0          0      )
                  (     0          0          1      )
                  (     0         -1          0      )

 cart.    s(39) = ( -1.0000000  0.0000000  0.0000000 )
                  (  0.0000000  0.0000000 -1.0000000 )
                  (  0.0000000  1.0000000  0.0000000 )


      isym = 40     inv.  90 deg rotation - cart. axis [1,0,0]   

 cryst.   s(40) = (    -1          0          0      )
                  (     0          0         -1      )
                  (     0          1          0      )

 cart.    s(40) = ( -1.0000000  0.0000000  0.0000000 )
                  (  0.0000000  0.0000000  1.0000000 )
                  (  0.0000000 -1.0000000  0.0000000 )


      isym = 41     inv. 120 deg rotation - cart. axis [-1,-1,-1]

 cryst.   s(41) = (     0          0         -1      )
                  (    -1          0          0      )
                  (     0         -1          0      )

 cart.    s(41) = (  0.0000000 -1.0000000  0.0000000 )
                  (  0.0000000  0.0000000 -1.0000000 )
                  ( -1.0000000  0.0000000  0.0000000 )


      isym = 42     inv. 120 deg rotation - cart. axis [-1,1,1]  

 cryst.   s(42) = (     0          0          1      )
                  (     1          0          0      )
                  (     0         -1          0      )

 cart.    s(42) = (  0.0000000  1.0000000  0.0000000 )
                  (  0.0000000  0.0000000 -1.0000000 )
                  (  1.0000000  0.0000000  0.0000000 )


      isym = 43     inv. 120 deg rotation - cart. axis [1,1,-1]  

 cryst.   s(43) = (     0          0          1      )
                  (    -1          0          0      )
                  (     0          1          0      )

 cart.    s(43) = (  0.0000000 -1.0000000  0.0000000 )
                  (  0.0000000  0.0000000  1.0000000 )
                  (  1.0000000  0.0000000  0.0000000 )


      isym = 44     inv. 120 deg rotation - cart. axis [1,-1,1]  

 cryst.   s(44) = (     0          0         -1      )
                  (     1          0          0      )
                  (     0          1          0      )

 cart.    s(44) = (  0.0000000  1.0000000  0.0000000 )
                  (  0.0000000  0.0000000  1.0000000 )
                  ( -1.0000000  0.0000000  0.0000000 )


      isym = 45     inv. 120 deg rotation - cart. axis [1,1,1]   

 cryst.   s(45) = (     0         -1          0      )
                  (     0          0         -1      )
                  (    -1          0          0      )

 cart.    s(45) = (  0.0000000  0.0000000 -1.0000000 )
                  ( -1.0000000  0.0000000  0.0000000 )
                  (  0.0000000 -1.0000000  0.0000000 )


      isym = 46     inv. 120 deg rotation - cart. axis [-1,1,-1] 

 cryst.   s(46) = (     0          1          0      )
                  (     0          0          1      )
                  (    -1          0          0      )

 cart.    s(46) = (  0.0000000  0.0000000 -1.0000000 )
                  (  1.0000000  0.0000000  0.0000000 )
                  (  0.0000000  1.0000000  0.0000000 )


      isym = 47     inv. 120 deg rotation - cart. axis [1,-1,-1] 

 cryst.   s(47) = (     0          1          0      )
                  (     0          0         -1      )
                  (     1          0          0      )

 cart.    s(47) = (  0.0000000  0.0000000  1.0000000 )
                  (  1.0000000  0.0000000  0.0000000 )
                  (  0.0000000 -1.0000000  0.0000000 )


      isym = 48     inv. 120 deg rotation - cart. axis [-1,-1,1] 

 cryst.   s(48) = (     0         -1          0      )
                  (     0          0          1      )
                  (     1          0          0      )

 cart.    s(48) = (  0.0000000  0.0000000  1.0000000 )
                  ( -1.0000000  0.0000000  0.0000000 )
                  (  0.0000000  1.0000000  0.0000000 )


   Cartesian axes

     site n.     atom                  positions (alat units)
         1           Cs  tau(   1) = (   0.5000000   0.5000000   0.5000000  )
         2           Pb  tau(   2) = (   0.0000000   0.0000000   0.0000000  )
         3           Cl  tau(   3) = (   0.5000000   0.0000000   0.0000000  )
         4           Cl  tau(   4) = (   0.0000000   0.5000000   0.0000000  )
         5           Cl  tau(   5) = (   0.0000000   0.0000000   0.5000000  )

   Crystallographic axes

     site n.     atom                  positions (cryst. coord.)
         1           Cs  tau(   1) = (  0.5000000  0.5000000  0.5000000  )
         2           Pb  tau(   2) = (  0.0000000  0.0000000  0.0000000  )
         3           Cl  tau(   3) = (  0.5000000  0.0000000  0.0000000  )
         4           Cl  tau(   4) = (  0.0000000  0.5000000  0.0000000  )
         5           Cl  tau(   5) = (  0.0000000  0.0000000  0.5000000  )

     number of k points=    20
                       cart. coord. in units 2pi/alat
        k(    1) = (   0.0625000   0.0625000   0.0625000), wk =   0.0156250
        k(    2) = (   0.0625000   0.0625000   0.1875000), wk =   0.0468750
        k(    3) = (   0.0625000   0.0625000   0.3125000), wk =   0.0468750
        k(    4) = (   0.0625000   0.0625000   0.4375000), wk =   0.0468750
        k(    5) = (   0.0625000   0.1875000   0.1875000), wk =   0.0468750
        k(    6) = (   0.0625000   0.1875000   0.3125000), wk =   0.0937500
        k(    7) = (   0.0625000   0.1875000   0.4375000), wk =   0.0937500
        k(    8) = (   0.0625000   0.3125000   0.3125000), wk =   0.0468750
        k(    9) = (   0.0625000   0.3125000   0.4375000), wk =   0.0937500
        k(   10) = (   0.0625000   0.4375000   0.4375000), wk =   0.0468750
        k(   11) = (   0.1875000   0.1875000   0.1875000), wk =   0.0156250
        k(   12) = (   0.1875000   0.1875000   0.3125000), wk =   0.0468750
        k(   13) = (   0.1875000   0.1875000   0.4375000), wk =   0.0468750
        k(   14) = (   0.1875000   0.3125000   0.3125000), wk =   0.0468750
        k(   15) = (   0.1875000   0.3125000   0.4375000), wk =   0.0937500
        k(   16) = (   0.1875000   0.4375000   0.4375000), wk =   0.0468750
        k(   17) = (   0.3125000   0.3125000   0.3125000), wk =   0.0156250
        k(   18) = (   0.3125000   0.3125000   0.4375000), wk =   0.0468750
        k(   19) = (   0.3125000   0.4375000   0.4375000), wk =   0.0468750
        k(   20) = (   0.4375000   0.4375000   0.4375000), wk =   0.0156250

                       cryst. coord.
        k(    1) = (   0.0625000   0.0625000   0.0625000), wk =   0.0156250
        k(    2) = (   0.0625000   0.0625000   0.1875000), wk =   0.0468750
        k(    3) = (   0.0625000   0.0625000   0.3125000), wk =   0.0468750
        k(    4) = (   0.0625000   0.0625000   0.4375000), wk =   0.0468750
        k(    5) = (   0.0625000   0.1875000   0.1875000), wk =   0.0468750
        k(    6) = (   0.0625000   0.1875000   0.3125000), wk =   0.0937500
        k(    7) = (   0.0625000   0.1875000   0.4375000), wk =   0.0937500
        k(    8) = (   0.0625000   0.3125000   0.3125000), wk =   0.0468750
        k(    9) = (   0.0625000   0.3125000   0.4375000), wk =   0.0937500
        k(   10) = (   0.0625000   0.4375000   0.4375000), wk =   0.0468750
        k(   11) = (   0.1875000   0.1875000   0.1875000), wk =   0.0156250
        k(   12) = (   0.1875000   0.1875000   0.3125000), wk =   0.0468750
        k(   13) = (   0.1875000   0.1875000   0.4375000), wk =   0.0468750
        k(   14) = (   0.1875000   0.3125000   0.3125000), wk =   0.0468750
        k(   15) = (   0.1875000   0.3125000   0.4375000), wk =   0.0937500
        k(   16) = (   0.1875000   0.4375000   0.4375000), wk =   0.0468750
        k(   17) = (   0.3125000   0.3125000   0.3125000), wk =   0.0156250
        k(   18) = (   0.3125000   0.3125000   0.4375000), wk =   0.0468750
        k(   19) = (   0.3125000   0.4375000   0.4375000), wk =   0.0468750
        k(   20) = (   0.4375000   0.4375000   0.4375000), wk =   0.0156250

     Dense  grid:    56619 G-vectors     FFT dimensions: (  48,  48,  48)

     Dynamical RAM for                 wfc:       2.37 MB

     Dynamical RAM for     wfc (w. buffer):       7.12 MB

     Dynamical RAM for           str. fact:       0.65 MB

     Dynamical RAM for           local pot:       0.00 MB

     Dynamical RAM for          nlocal pot:       5.34 MB

     Dynamical RAM for                qrad:      40.12 MB

     Dynamical RAM for          rho,v,vnew:       5.12 MB

     Dynamical RAM for               rhoin:       1.71 MB

     Dynamical RAM for            rho*nmix:      13.82 MB

     Dynamical RAM for           G-vectors:       0.92 MB

     Dynamical RAM for          h,s,v(r/c):       1.42 MB

     Dynamical RAM for          <psi|beta>:       0.27 MB

     Dynamical RAM for                 psi:       9.50 MB

     Dynamical RAM for                hpsi:       9.50 MB

     Dynamical RAM for      wfcinit/wfcrot:       4.27 MB

     Estimated static dynamical RAM per process >      77.36 MB

     Estimated max dynamical RAM per process >      98.03 MB

     Estimated total dynamical RAM >       6.13 GB

     Initial potential from superposition of free atoms

     starting charge   43.95922, renormalised to   44.00000
     Starting wfcs are   52 randomized atomic wfcs

     total cpu time spent up to now is        7.4 secs

     Self-consistent Calculation

     iteration #  1     ecut=    50.00 Ry     beta= 0.70
     Davidson diagonalization with overlap
     ethr =  1.00E-02,  avg # of iterations =  1.0

     Threshold (ethr) on eigenvalues was too large:
     Diagonalizing with lowered threshold

     Davidson diagonalization with overlap
     ethr =  4.91E-04,  avg # of iterations =  3.0

     total cpu time spent up to now is       13.5 secs

     total energy              =    -286.10570047 Ry
     Harris-Foulkes estimate   =    -286.24135191 Ry
     estimated scf accuracy    <       0.19630936 Ry

     iteration #  2     ecut=    50.00 Ry     beta= 0.70
     Davidson diagonalization with overlap
     ethr =  4.46E-04,  avg # of iterations =  3.0

     total cpu time spent up to now is       16.9 secs

     total energy              =    -286.16348882 Ry
     Harris-Foulkes estimate   =    -286.21101335 Ry
     estimated scf accuracy    <       0.08758952 Ry

     iteration #  3     ecut=    50.00 Ry     beta= 0.70
     Davidson diagonalization with overlap
     ethr =  1.99E-04,  avg # of iterations =  2.2

     total cpu time spent up to now is       20.1 secs

     total energy              =    -286.18311693 Ry
     Harris-Foulkes estimate   =    -286.18285356 Ry
     estimated scf accuracy    <       0.00068094 Ry

     iteration #  4     ecut=    50.00 Ry     beta= 0.70
     Davidson diagonalization with overlap
     ethr =  1.55E-06,  avg # of iterations =  3.4

     total cpu time spent up to now is       23.9 secs

     total energy              =    -286.18339634 Ry
     Harris-Foulkes estimate   =    -286.18339942 Ry
     estimated scf accuracy    <       0.00003328 Ry

     iteration #  5     ecut=    50.00 Ry     beta= 0.70
     Davidson diagonalization with overlap
     ethr =  7.56E-08,  avg # of iterations =  3.2

     total cpu time spent up to now is       27.8 secs

     total energy              =    -286.18340949 Ry
     Harris-Foulkes estimate   =    -286.18340794 Ry
     estimated scf accuracy    <       0.00000178 Ry

     iteration #  6     ecut=    50.00 Ry     beta= 0.70
     Davidson diagonalization with overlap
     ethr =  4.05E-09,  avg # of iterations =  3.7

     total cpu time spent up to now is       31.5 secs

     End of self-consistent calculation

          k = 0.0625 0.0625 0.0625 (  7060 PWs)   bands (ev):

   -17.1091 -17.1091 -13.7720 -13.7720 -13.7720 -13.7720 -11.4612 -11.4612
   -11.4611 -11.4611 -11.1451 -11.1451 -10.9559 -10.9559  -9.9790  -9.9790
    -9.9785  -9.9785  -5.0549  -5.0549  -3.4450  -3.4450  -3.4410  -3.4410
    -2.4953  -2.4953  -0.6447  -0.6447  -0.3130  -0.3130  -0.1992  -0.1992
     1.5219   1.5219   1.5399   1.5399   1.5691   1.5691   1.6016   1.6016
     1.7128   1.7128   1.7285   1.7285

     occupation numbers 
     1.0000   1.0000   1.0000   1.0000   1.0000   1.0000   1.0000   1.0000
     1.0000   1.0000   1.0000   1.0000   1.0000   1.0000   1.0000   1.0000
     1.0000   1.0000   1.0000   1.0000   1.0000   1.0000   1.0000   1.0000
     1.0000   1.0000   1.0000   1.0000   1.0000   1.0000   1.0000   1.0000
     1.0000   1.0000   1.0000   1.0000   1.0000   1.0000   1.0000   1.0000
     1.0000   1.0000   1.0000   1.0000

          k = 0.0625 0.0625 0.1875 (  7050 PWs)   bands (ev):

   -17.1085 -17.1085 -13.7720 -13.7720 -13.7655 -13.7655 -11.4611 -11.4611
   -11.4303 -11.4303 -11.1455 -11.1455 -10.9171 -10.9171 -10.0779 -10.0779
    -9.9782  -9.9782  -5.0520  -5.0520  -3.4417  -3.4417  -3.4331  -3.4331
    -2.8372  -2.8372  -0.5506  -0.5506  -0.2720  -0.2720   0.2912   0.2912
     1.4642   1.4642   1.5079   1.5079   1.5670   1.5670   1.5993   1.5993
     1.6920   1.6920   1.7425   1.7425

     occupation numbers 
     1.0000   1.0000   1.0000   1.0000   1.0000   1.0000   1.0000   1.0000
     1.0000   1.0000   1.0000   1.0000   1.0000   1.0000   1.0000   1.0000
     1.0000   1.0000   1.0000   1.0000   1.0000   1.0000   1.0000   1.0000
     1.0000   1.0000   1.0000   1.0000   1.0000   1.0000   1.0000   1.0000
     1.0000   1.0000   1.0000   1.0000   1.0000   1.0000   1.0000   1.0000
     1.0000   1.0000   1.0000   1.0000

          k = 0.0625 0.0625 0.3125 (  7061 PWs)   bands (ev):

   -17.1076 -17.1076 -13.7721 -13.7721 -13.7565 -13.7565 -11.4609 -11.4609
   -11.3884 -11.3884 -11.1460 -11.1460 -10.8255 -10.8255 -10.2532 -10.2532
    -9.9775  -9.9775  -5.0481  -5.0481  -3.4346  -3.4346  -3.4244  -3.4244
    -3.1656  -3.1656  -0.5004  -0.5004  -0.2436  -0.2436   0.8184   0.8184
     1.3973   1.3973   1.4820   1.4820   1.5581   1.5581   1.5830   1.5830
     1.6515   1.6515   1.9912   1.9912

     occupation numbers 
     1.0000   1.0000   1.0000   1.0000   1.0000   1.0000   1.0000   1.0000
     1.0000   1.0000   1.0000   1.0000   1.0000   1.0000   1.0000   1.0000
     1.0000   1.0000   1.0000   1.0000   1.0000   1.0000   1.0000   1.0000
     1.0000   1.0000   1.0000   1.0000   1.0000   1.0000   1.0000   1.0000
     1.0000   1.0000   1.0000   1.0000   1.0000   1.0000   1.0000   1.0000
     1.0000   1.0000   1.0000   1.0000

          k = 0.0625 0.0625 0.4375 (  7069 PWs)   bands (ev):

   -17.1070 -17.1070 -13.7721 -13.7721 -13.7502 -13.7502 -11.4609 -11.4609
   -11.3610 -11.3610 -11.1464 -11.1464 -10.6721 -10.6721 -10.4637 -10.4637
    -9.9770  -9.9770  -5.0453  -5.0453  -3.4311  -3.4311  -3.4188  -3.4188
    -3.3430  -3.3430  -0.4717  -0.4717  -0.2242  -0.2242   0.9715   0.9715
     1.3552   1.3552   1.4806   1.4806   1.5317   1.5317   1.5741   1.5741
     1.6096   1.6096   2.4875   2.4875

     occupation numbers 
     1.0000   1.0000   1.0000   1.0000   1.0000   1.0000   1.0000   1.0000
     1.0000   1.0000   1.0000   1.0000   1.0000   1.0000   1.0000   1.0000
     1.0000   1.0000   1.0000   1.0000   1.0000   1.0000   1.0000   1.0000
     1.0000   1.0000   1.0000   1.0000   1.0000   1.0000   1.0000   1.0000
     1.0000   1.0000   1.0000   1.0000   1.0000   1.0000   1.0000   1.0000
     1.0000   1.0000   1.0000   1.0000

          k = 0.0625 0.1875 0.1875 (  7051 PWs)   bands (ev):

   -17.1079 -17.1079 -13.7688 -13.7688 -13.7623 -13.7623 -11.4468 -11.4468
   -11.4101 -11.4101 -11.1459 -11.1459 -10.8835 -10.8835 -10.1207 -10.1207
   -10.0296 -10.0296  -5.0511  -5.0511  -3.4436  -3.4436  -3.4277  -3.4277
    -3.1314  -3.1314  -0.4347  -0.4347  -0.0138  -0.0138   0.4817   0.4817
     1.3730   1.3730   1.4723   1.4723   1.5716   1.5716   1.6271   1.6271
     1.7244   1.7244   1.7697   1.7697

     occupation numbers 
     1.0000   1.0000   1.0000   1.0000   1.0000   1.0000   1.0000   1.0000
     1.0000   1.0000   1.0000   1.0000   1.0000   1.0000   1.0000   1.0000
     1.0000   1.0000   1.0000   1.0000   1.0000   1.0000   1.0000   1.0000
     1.0000   1.0000   1.0000   1.0000   1.0000   1.0000   1.0000   1.0000
     1.0000   1.0000   1.0000   1.0000   1.0000   1.0000   1.0000   1.0000
     1.0000   1.0000   1.0000   1.0000

          k = 0.0625 0.1875 0.3125 (  7075 PWs)   bands (ev):

   -17.1071 -17.1071 -13.7679 -13.7679 -13.7542 -13.7542 -11.4426 -11.4426
   -11.3657 -11.3657 -11.1464 -11.1464 -10.8027 -10.8027 -10.2704 -10.2704
   -10.0466 -10.0466  -5.0498  -5.0498  -3.4577  -3.4577  -3.4358  -3.4358
    -3.4059  -3.4059  -0.3788  -0.3788   0.1385   0.1385   0.8242   0.8242
     1.3021   1.3021   1.4427   1.4427   1.5507   1.5507   1.6196   1.6196
     1.7388   1.7388   2.0776   2.0776

     occupation numbers 
     1.0000   1.0000   1.0000   1.0000   1.0000   1.0000   1.0000   1.0000
     1.0000   1.0000   1.0000   1.0000   1.0000   1.0000   1.0000   1.0000
     1.0000   1.0000   1.0000   1.0000   1.0000   1.0000   1.0000   1.0000
     1.0000   1.0000   1.0000   1.0000   1.0000   1.0000   1.0000   1.0000
     1.0000   1.0000   1.0000   1.0000   1.0000   1.0000   1.0000   1.0000
     1.0000   1.0000   1.0000   1.0000

          k = 0.0625 0.1875 0.4375 (  7070 PWs)   bands (ev):

   -17.1065 -17.1065 -13.7677 -13.7677 -13.7479 -13.7479 -11.4416 -11.4416
   -11.3335 -11.3335 -11.1468 -11.1468 -10.6623 -10.6623 -10.4679 -10.4679
   -10.0491 -10.0491  -5.0489  -5.0489  -3.6099  -3.6099  -3.4363  -3.4363
    -3.4193  -3.4193  -0.3471  -0.3471   0.1910   0.1910   0.9207   0.9207
     1.2853   1.2853   1.4572   1.4572   1.5061   1.5061   1.6031   1.6031
     1.7308   1.7308   2.5934   2.5934

     occupation numbers 
     1.0000   1.0000   1.0000   1.0000   1.0000   1.0000   1.0000   1.0000
     1.0000   1.0000   1.0000   1.0000   1.0000   1.0000   1.0000   1.0000
     1.0000   1.0000   1.0000   1.0000   1.0000   1.0000   1.0000   1.0000
     1.0000   1.0000   1.0000   1.0000   1.0000   1.0000   1.0000   1.0000
     1.0000   1.0000   1.0000   1.0000   1.0000   1.0000   1.0000   1.0000
     1.0000   1.0000   1.0000   1.0000

          k = 0.0625 0.3125 0.3125 (  7072 PWs)   bands (ev):

   -17.1063 -17.1063 -13.7645 -13.7645 -13.7484 -13.7484 -11.4306 -11.4306
   -11.3156 -11.3156 -11.1470 -11.1470 -10.7451 -10.7451 -10.3385 -10.3385
   -10.1302 -10.1302  -5.0522  -5.0522  -3.7268  -3.7268  -3.4481  -3.4481
    -3.4201  -3.4201  -0.3163  -0.3163   0.6148   0.6148   0.8415   0.8415
     1.2458   1.2458   1.4016   1.4016   1.5145   1.5145   1.6146   1.6146
     1.8436   1.8436   2.3936   2.3936

     occupation numbers 
     1.0000   1.0000   1.0000   1.0000   1.0000   1.0000   1.0000   1.0000
     1.0000   1.0000   1.0000   1.0000   1.0000   1.0000   1.0000   1.0000
     1.0000   1.0000   1.0000   1.0000   1.0000   1.0000   1.0000   1.0000
     1.0000   1.0000   1.0000   1.0000   1.0000   1.0000   1.0000   1.0000
     1.0000   1.0000   1.0000   1.0000   1.0000   1.0000   1.0000   1.0000
     1.0000   1.0000   1.0000   1.0000

          k = 0.0625 0.3125 0.4375 (  7065 PWs)   bands (ev):

   -17.1058 -17.1058 -13.7634 -13.7634 -13.7430 -13.7430 -11.4267 -11.4267
   -11.2733 -11.2733 -11.1474 -11.1474 -10.6370 -10.6370 -10.4816 -10.4816
   -10.1644 -10.1644  -5.0539  -5.0539  -3.8915  -3.8915  -3.4528  -3.4528
    -3.4216  -3.4216  -0.2783  -0.2783   0.8006   0.8006   0.8509   0.8509
     1.2683   1.2683   1.4007   1.4007   1.4776   1.4776   1.5929   1.5929
     1.8779   1.8779   2.8738   2.8738

     occupation numbers 
     1.0000   1.0000   1.0000   1.0000   1.0000   1.0000   1.0000   1.0000
     1.0000   1.0000   1.0000   1.0000   1.0000   1.0000   1.0000   1.0000
     1.0000   1.0000   1.0000   1.0000   1.0000   1.0000   1.0000   1.0000
     1.0000   1.0000   1.0000   1.0000   1.0000   1.0000   1.0000   1.0000
     1.0000   1.0000   1.0000   1.0000   1.0000   1.0000   1.0000   1.0000
     1.0000   1.0000   1.0000   1.0000

          k = 0.0625 0.4375 0.4375 (  7090 PWs)   bands (ev):

   -17.1053 -17.1053 -13.7615 -13.7615 -13.7384 -13.7384 -11.4212 -11.4212
   -11.2173 -11.2173 -11.1478 -11.1478 -10.5868 -10.5868 -10.5202 -10.5202
   -10.2578 -10.2578  -5.0575  -5.0575  -4.0556  -4.0556  -3.4638  -3.4638
    -3.4229  -3.4229  -0.2345  -0.2345   0.7929   0.7929   1.1844   1.1844
     1.2778   1.2778   1.3808   1.3808   1.4612   1.4612   1.5484   1.5484
     1.9621   1.9621   3.2850   3.2850

     occupation numbers 
     1.0000   1.0000   1.0000   1.0000   1.0000   1.0000   1.0000   1.0000
     1.0000   1.0000   1.0000   1.0000   1.0000   1.0000   1.0000   1.0000
     1.0000   1.0000   1.0000   1.0000   1.0000   1.0000   1.0000   1.0000
     1.0000   1.0000   1.0000   1.0000   1.0000   1.0000   1.0000   1.0000
     1.0000   1.0000   1.0000   1.0000   1.0000   1.0000   1.0000   1.0000
     1.0000   1.0000   1.0000   1.0000

          k = 0.1875 0.1875 0.1875 (  7070 PWs)   bands (ev):

   -17.1073 -17.1073 -13.7623 -13.7623 -13.7623 -13.7623 -11.4104 -11.4104
   -11.4095 -11.4095 -11.1463 -11.1463 -10.8541 -10.8541 -10.1220 -10.1220
   -10.1178 -10.1178  -5.0520  -5.0520  -3.4484  -3.4484  -3.4410  -3.4410
    -3.3815  -3.3815  -0.1470  -0.1470   0.0908   0.0908   0.6062   0.6062
     1.3456   1.3456   1.3628   1.3628   1.6340   1.6340   1.6993   1.6993
     1.7561   1.7561   1.7726   1.7726

     occupation numbers 
     1.0000   1.0000   1.0000   1.0000   1.0000   1.0000   1.0000   1.0000
     1.0000   1.0000   1.0000   1.0000   1.0000   1.0000   1.0000   1.0000
     1.0000   1.0000   1.0000   1.0000   1.0000   1.0000   1.0000   1.0000
     1.0000   1.0000   1.0000   1.0000   1.0000   1.0000   1.0000   1.0000
     1.0000   1.0000   1.0000   1.0000   1.0000   1.0000   1.0000   1.0000
     1.0000   1.0000   1.0000   1.0000

          k = 0.1875 0.1875 0.3125 (  7077 PWs)   bands (ev):

   -17.1066 -17.1066 -13.7624 -13.7624 -13.7531 -13.7531 -11.4098 -11.4098
   -11.3564 -11.3564 -11.1468 -11.1468 -10.7823 -10.7823 -10.2798 -10.2798
   -10.1187 -10.1187  -5.0533  -5.0533  -3.6874  -3.6874  -3.4505  -3.4505
    -3.4216  -3.4216  -0.0294  -0.0294   0.2702   0.2702   0.8300   0.8300
     1.2495   1.2495   1.3382   1.3382   1.6467   1.6467   1.7122   1.7122
     1.7563   1.7563   2.1429   2.1429

     occupation numbers 
     1.0000   1.0000   1.0000   1.0000   1.0000   1.0000   1.0000   1.0000
     1.0000   1.0000   1.0000   1.0000   1.0000   1.0000   1.0000   1.0000
     1.0000   1.0000   1.0000   1.0000   1.0000   1.0000   1.0000   1.0000
     1.0000   1.0000   1.0000   1.0000   1.0000   1.0000   1.0000   1.0000
     1.0000   1.0000   1.0000   1.0000   1.0000   1.0000   1.0000   1.0000
     1.0000   1.0000   1.0000   1.0000

          k = 0.1875 0.1875 0.4375 (  7072 PWs)   bands (ev):

   -17.1060 -17.1060 -13.7624 -13.7624 -13.7467 -13.7467 -11.4097 -11.4097
   -11.3185 -11.3185 -11.1472 -11.1472 -10.6537 -10.6537 -10.4708 -10.4708
   -10.1180 -10.1180  -5.0542  -5.0542  -3.8502  -3.8502  -3.4487  -3.4487
    -3.4273  -3.4273   0.0128   0.0128   0.3504   0.3504   0.9103   0.9103
     1.1892   1.1892   1.3720   1.3720   1.6180   1.6180   1.6851   1.6851
     1.7696   1.7696   2.6839   2.6839

     occupation numbers 
     1.0000   1.0000   1.0000   1.0000   1.0000   1.0000   1.0000   1.0000
     1.0000   1.0000   1.0000   1.0000   1.0000   1.0000   1.0000   1.0000
     1.0000   1.0000   1.0000   1.0000   1.0000   1.0000   1.0000   1.0000
     1.0000   1.0000   1.0000   1.0000   1.0000   1.0000   1.0000   1.0000
     1.0000   1.0000   1.0000   1.0000   1.0000   1.0000   1.0000   1.0000
     1.0000   1.0000   1.0000   1.0000

          k = 0.1875 0.3125 0.3125 (  7073 PWs)   bands (ev):

   -17.1058 -17.1058 -13.7579 -13.7579 -13.7484 -13.7484 -11.3861 -11.3861
   -11.3156 -11.3156 -11.1474 -11.1474 -10.7306 -10.7306 -10.3374 -10.3374
   -10.2048 -10.2048  -5.0582  -5.0582  -3.9604  -3.9604  -3.4602  -3.4602
    -3.4305  -3.4305   0.1293   0.1293   0.6514   0.6514   0.8555   0.8555
     1.1857   1.1857   1.2733   1.2733   1.6697   1.6697   1.7430   1.7430
     1.8439   1.8439   2.4553   2.4553

     occupation numbers 
     1.0000   1.0000   1.0000   1.0000   1.0000   1.0000   1.0000   1.0000
     1.0000   1.0000   1.0000   1.0000   1.0000   1.0000   1.0000   1.0000
     1.0000   1.0000   1.0000   1.0000   1.0000   1.0000   1.0000   1.0000
     1.0000   1.0000   1.0000   1.0000   1.0000   1.0000   1.0000   1.0000
     1.0000   1.0000   1.0000   1.0000   1.0000   1.0000   1.0000   1.0000
     1.0000   1.0000   1.0000   1.0000

          k = 0.1875 0.3125 0.4375 (  7084 PWs)   bands (ev):

   -17.1053 -17.1053 -13.7569 -13.7569 -13.7429 -13.7429 -11.3813 -11.3813
   -11.2711 -11.2711 -11.1478 -11.1478 -10.6311 -10.6311 -10.4819 -10.4819
   -10.2287 -10.2287  -5.0617  -5.0617  -4.1207  -4.1207  -3.4649  -3.4649
    -3.4384  -3.4384   0.1827   0.1827   0.8370   0.8370   0.8860   0.8860
     1.1480   1.1480   1.2999   1.2999   1.6548   1.6548   1.7260   1.7260
     1.8833   1.8833   2.9497   2.9497

     occupation numbers 
     1.0000   1.0000   1.0000   1.0000   1.0000   1.0000   1.0000   1.0000
     1.0000   1.0000   1.0000   1.0000   1.0000   1.0000   1.0000   1.0000
     1.0000   1.0000   1.0000   1.0000   1.0000   1.0000   1.0000   1.0000
     1.0000   1.0000   1.0000   1.0000   1.0000   1.0000   1.0000   1.0000
     1.0000   1.0000   1.0000   1.0000   1.0000   1.0000   1.0000   1.0000
     1.0000   1.0000   1.0000   1.0000

          k = 0.1875 0.4375 0.4375 (  7083 PWs)   bands (ev):

   -17.1048 -17.1048 -13.7548 -13.7548 -13.7385 -13.7385 -11.3722 -11.3722
   -11.2174 -11.2174 -11.1482 -11.1482 -10.5845 -10.5845 -10.5188 -10.5188
   -10.3182 -10.3182  -5.0669  -5.0669  -4.2806  -4.2806  -3.4761  -3.4761
    -3.4463  -3.4463   0.2447   0.2447   0.8506   0.8506   1.1101   1.1101
     1.1452   1.1452   1.3698   1.3698   1.6521   1.6521   1.7104   1.7104
     1.9656   1.9656   3.3645   3.3645

     occupation numbers 
     1.0000   1.0000   1.0000   1.0000   1.0000   1.0000   1.0000   1.0000
     1.0000   1.0000   1.0000   1.0000   1.0000   1.0000   1.0000   1.0000
     1.0000   1.0000   1.0000   1.0000   1.0000   1.0000   1.0000   1.0000
     1.0000   1.0000   1.0000   1.0000   1.0000   1.0000   1.0000   1.0000
     1.0000   1.0000   1.0000   1.0000   1.0000   1.0000   1.0000   1.0000
     1.0000   1.0000   1.0000   1.0000

          k = 0.3125 0.3125 0.3125 (  7076 PWs)   bands (ev):

   -17.1052 -17.1052 -13.7485 -13.7485 -13.7485 -13.7485 -11.3161 -11.3161
   -11.3148 -11.3148 -11.1480 -11.1480 -10.6930 -10.6930 -10.3402 -10.3402
   -10.3311 -10.3311  -5.0667  -5.0667  -4.2261  -4.2261  -3.4742  -3.4742
    -3.4477  -3.4477   0.6208   0.6208   0.7576   0.7576   0.8854   0.8854
     1.1508   1.1508   1.1606   1.1606   1.7799   1.7799   1.8489   1.8489
     1.8608   1.8608   2.7239   2.7239

     occupation numbers 
     1.0000   1.0000   1.0000   1.0000   1.0000   1.0000   1.0000   1.0000
     1.0000   1.0000   1.0000   1.0000   1.0000   1.0000   1.0000   1.0000
     1.0000   1.0000   1.0000   1.0000   1.0000   1.0000   1.0000   1.0000
     1.0000   1.0000   1.0000   1.0000   1.0000   1.0000   1.0000   1.0000
     1.0000   1.0000   1.0000   1.0000   1.0000   1.0000   1.0000   1.0000
     1.0000   1.0000   1.0000   1.0000

          k = 0.3125 0.3125 0.4375 (  7089 PWs)   bands (ev):

   -17.1047 -17.1047 -13.7485 -13.7485 -13.7419 -13.7419 -11.3154 -11.3154
   -11.2587 -11.2587 -11.1484 -11.1484 -10.6154 -10.6154 -10.4865 -10.4865
   -10.3343 -10.3343  -5.0726  -5.0726  -4.3845  -4.3845  -3.4817  -3.4817
    -3.4620  -3.4620   0.7270   0.7270   0.9125   0.9125   0.9534   0.9534
     1.0777   1.0777   1.2319   1.2319   1.7904   1.7904   1.8481   1.8481
     1.9098   1.9098   3.1836   3.1836

     occupation numbers 
     1.0000   1.0000   1.0000   1.0000   1.0000   1.0000   1.0000   1.0000
     1.0000   1.0000   1.0000   1.0000   1.0000   1.0000   1.0000   1.0000
     1.0000   1.0000   1.0000   1.0000   1.0000   1.0000   1.0000   1.0000
     1.0000   1.0000   1.0000   1.0000   1.0000   1.0000   1.0000   1.0000
     1.0000   1.0000   1.0000   1.0000   1.0000   1.0000   1.0000   1.0000
     1.0000   1.0000   1.0000   1.0000

          k = 0.3125 0.4375 0.4375 (  7067 PWs)   bands (ev):

   -17.1042 -17.1042 -13.7453 -13.7453 -13.7385 -13.7385 -11.2900 -11.2900
   -11.2174 -11.2174 -11.1488 -11.1488 -10.5794 -10.5794 -10.5168 -10.5168
   -10.4186 -10.4186  -5.0803  -5.0803  -4.5430  -4.5430  -3.4933  -3.4933
    -3.4786  -3.4786   0.8946   0.8946   0.9323   0.9323   1.0480   1.0480
     1.0613   1.0613   1.3687   1.3687   1.8262   1.8262   1.8827   1.8827
     1.9732   1.9732   3.5807   3.5807

     occupation numbers 
     1.0000   1.0000   1.0000   1.0000   1.0000   1.0000   1.0000   1.0000
     1.0000   1.0000   1.0000   1.0000   1.0000   1.0000   1.0000   1.0000
     1.0000   1.0000   1.0000   1.0000   1.0000   1.0000   1.0000   1.0000
     1.0000   1.0000   1.0000   1.0000   1.0000   1.0000   1.0000   1.0000
     1.0000   1.0000   1.0000   1.0000   1.0000   1.0000   1.0000   1.0000
     1.0000   1.0000   1.0000   1.0000

          k = 0.4375 0.4375 0.4375 (  7061 PWs)   bands (ev):

   -17.1038 -17.1038 -13.7386 -13.7386 -13.7386 -13.7386 -11.2177 -11.2177
   -11.2173 -11.2173 -11.1492 -11.1492 -10.5662 -10.5662 -10.5204 -10.5204
   -10.5090 -10.5090  -5.0897  -5.0897  -4.7020  -4.7020  -3.5054  -3.5054
    -3.5010  -3.5010   0.9844   0.9844   1.0118   1.0118   1.0171   1.0171
     1.3530   1.3530   1.3807   1.3807   1.9185   1.9185   1.9837   1.9837
     1.9911   1.9911   3.9561   3.9561

     occupation numbers 
     1.0000   1.0000   1.0000   1.0000   1.0000   1.0000   1.0000   1.0000
     1.0000   1.0000   1.0000   1.0000   1.0000   1.0000   1.0000   1.0000
     1.0000   1.0000   1.0000   1.0000   1.0000   1.0000   1.0000   1.0000
     1.0000   1.0000   1.0000   1.0000   1.0000   1.0000   1.0000   1.0000
     1.0000   1.0000   1.0000   1.0000   1.0000   1.0000   1.0000   1.0000
     1.0000   1.0000   1.0000   1.0000

     highest occupied level (ev):     3.9561

!    total energy              =    -286.18341035 Ry
     Harris-Foulkes estimate   =    -286.18341024 Ry
     estimated scf accuracy    <       0.00000006 Ry

     The total energy is the sum of the following terms:

     one-electron contribution =     -99.96057355 Ry
     hartree contribution      =      69.48437070 Ry
     xc contribution           =     -80.57831544 Ry
     ewald contribution        =    -175.12889205 Ry

     convergence has been achieved in   6 iterations

     Writing output data file cspbcl3.save/
 
     init_run     :      2.10s CPU      3.32s WALL (       1 calls)
     electrons    :     23.12s CPU     24.24s WALL (       1 calls)

     Called by init_run:
     wfcinit      :      0.78s CPU      0.90s WALL (       1 calls)
     wfcinit:atom :      0.01s CPU      0.02s WALL (       2 calls)
     wfcinit:wfcr :      0.68s CPU      0.75s WALL (       2 calls)
     potinit      :      0.15s CPU      0.23s WALL (       1 calls)
     hinit0       :      0.47s CPU      1.35s WALL (       1 calls)

     Called by electrons:
     c_bands      :     20.48s CPU     21.06s WALL (       7 calls)
     sum_band     :      2.04s CPU      2.18s WALL (       7 calls)
     v_of_rho     :      0.43s CPU      0.50s WALL (       7 calls)
     v_h          :      0.02s CPU      0.03s WALL (       7 calls)
     v_xc         :      0.41s CPU      0.46s WALL (       7 calls)
     mix_rho      :      0.19s CPU      0.28s WALL (       7 calls)

     Called by c_bands:
     init_us_2    :      0.34s CPU      0.34s WALL (      30 calls)
     cegterg      :     11.80s CPU     12.37s WALL (      14 calls)

     Called by sum_band:

     Called by *egterg:
     h_psi        :     10.50s CPU     11.09s WALL (      56 calls)
     g_psi        :      0.12s CPU      0.12s WALL (      40 calls)
     cdiaghg      :      0.71s CPU      0.73s WALL (      52 calls)
     cegterg:over :      0.41s CPU      0.41s WALL (      40 calls)
     cegterg:upda :      0.43s CPU      0.43s WALL (      40 calls)
     cegterg:last :      0.12s CPU      0.12s WALL (      14 calls)

     Called by h_psi:
     h_psi:pot    :     10.46s CPU     11.03s WALL (      56 calls)
     h_psi:calbec :      0.49s CPU      0.50s WALL (      56 calls)
     vloc_psi     :      9.06s CPU      9.61s WALL (      56 calls)
     add_vuspsi   :      0.91s CPU      0.92s WALL (      56 calls)

     General routines
     calbec       :      0.49s CPU      0.50s WALL (      56 calls)
     fft          :      0.35s CPU      1.22s WALL (      89 calls)
     ffts         :      0.07s CPU      0.08s WALL (      28 calls)
     fftw         :      8.84s CPU      9.40s WALL (    8252 calls)
 
     Parallel routines
     fft_scatt_xy :      1.72s CPU      1.84s WALL (    8369 calls)
     fft_scatt_yz :      1.95s CPU      2.11s WALL (    8369 calls)
 
     PWSCF        :     28.54s CPU     32.46s WALL

 
   This run was terminated on:  15:10:49   1May2021            

=------------------------------------------------------------------------------=
   JOB DONE.
=------------------------------------------------------------------------------=
TACC:  Shutdown complete. Exiting. 
