
     Program PWSCF v.5.0.2 (svn rev. 9656) starts on 26Jun2013 at 22:54:33 

     This program is part of the open-source Quantum ESPRESSO suite
     for quantum simulation of materials; please cite
         "P. Giannozzi et al., J. Phys.:Condens. Matter 21 395502 (2009);
          URL http://www.quantum-espresso.org", 
     in publications or presentations arising from this work. More details at
     http://www.quantum-espresso.org/quote.php

     Parallel version (MPI), running on    64 processors
     R & G space division:  proc/nbgrp/npool/nimage =      64

     Current dimensions of program PWSCF are:
     Max number of different atomic species (ntypx) = 10
     Max number of k-points (npk) =  40000
     Max angular momentum in pseudopotentials (lmaxx) =  3
     Waiting for input...
     Reading input from standard input

     Atomic positions and unit cell read from directory:
     ./Zn2O2.save/
 

     Subspace diagonalization in iterative solution of the eigenvalue problem:
     scalapack distributed-memory algorithm (size of sub-group:  5*  5 procs)


   Info: using nr1, nr2, nr3 values from input
 
     Parallelization info
     --------------------
     sticks:   dense  smooth     PW     G-vecs:    dense   smooth      PW
     Min          64      64     17                 5414     5414     753
     Max          65      65     18                 5423     5423     762
     Sum        4153    4153   1123               346889   346889   48467
 


     bravais-lattice index     =            0
     lattice parameter (alat)  =       1.8897  a.u.
     unit-cell volume          =     320.9943 (a.u.)^3
     number of atoms/cell      =            4
     number of atomic types    =            2
     number of electrons       =        52.00
     number of Kohn-Sham states=           26
     kinetic-energy cutoff     =     400.0000  Ry
     charge density cutoff     =    1600.0000  Ry
     Exchange-correlation      = SLA+PW ( 1 4 0 0 0)
     EXX-fraction              =        0.00

     celldm(1)=   1.889726  celldm(2)=   0.000000  celldm(3)=   0.000000
     celldm(4)=   0.000000  celldm(5)=   0.000000  celldm(6)=   0.000000

     crystal axes: (cart. coord. in units of alat)
               a(1) = (   3.250000   0.000000   0.000000 )  
               a(2) = (  -1.625000   2.814583   0.000000 )  
               a(3) = (   0.000000   0.000000   5.200000 )  

     reciprocal axes: (cart. coord. in units 2 pi/alat)
               b(1) = (  0.307692  0.177646  0.000000 )  
               b(2) = (  0.000000  0.355292  0.000000 )  
               b(3) = (  0.000000  0.000000  0.192308 )  


     PseudoPot. # 1 for Zn read from file:
     ../../0_pp/Zn.pw-spn-nc.UPF
     MD5 check sum: 9a837cc8ef69fdaee1504d3748345681
     Pseudo is Norm-conserving + core correction, Zval = 20.0
     Generated using "atomic" code by A. Dal Corso  v.5.0.2 svn rev. 9656
     Using radial grid of 1201 points,  2 beta functions with: 
                l(1) =   0
                l(2) =   1

     PseudoPot. # 2 for  O read from file:
     ../../0_pp/O.pw-n-nc.UPF
     MD5 check sum: 22ead4914353326b5879bd0c3df232e0
     Pseudo is Norm-conserving + core correction, Zval =  6.0
     Generated using "atomic" code by A. Dal Corso  v.5.0.2 svn rev. 9656
     Using radial grid of 1095 points,  1 beta functions with: 
                l(1) =   0

     atomic species   valence    mass     pseudopotential
        Zn            20.00    65.38000     Zn( 1.00)
        O              6.00    15.99900      O( 1.00)

     12 Sym. Ops. (no inversion) found ( 6 have fractional translation)


                                    s                        frac. trans.

      isym =  1     identity                                     

 cryst.   s( 1) = (     1          0          0      )
                  (     0          1          0      )
                  (     0          0          1      )

 cart.    s( 1) = (  1.0000000  0.0000000  0.0000000 )
                  (  0.0000000  1.0000000  0.0000000 )
                  (  0.0000000  0.0000000  1.0000000 )


      isym =  2     180 deg rotation - cart. axis [0,0,1]        

 cryst.   s( 2) = (    -1          0          0      )    f =(  0.0000000 )
                  (     0         -1          0      )       (  0.0000000 )
                  (     0          0          1      )       ( -0.5000000 )

 cart.    s( 2) = ( -1.0000000  0.0000000  0.0000000 )    f =(  0.0000000 )
                  (  0.0000000 -1.0000000  0.0000000 )       (  0.0000000 )
                  (  0.0000000  0.0000000  1.0000000 )       ( -2.6000000 )


      isym =  3      60 deg rotation - cryst. axis [0,0,1]       

 cryst.   s( 3) = (     1          1          0      )    f =(  0.0000000 )
                  (    -1          0          0      )       (  0.0000000 )
                  (     0          0          1      )       ( -0.5000000 )

 cart.    s( 3) = (  0.5000000 -0.8660254  0.0000000 )    f =(  0.0000000 )
                  (  0.8660254  0.5000000  0.0000000 )       (  0.0000000 )
                  (  0.0000000  0.0000000  1.0000000 )       ( -2.6000000 )


      isym =  4      60 deg rotation - cryst. axis [0,0,-1]      

 cryst.   s( 4) = (     0         -1          0      )    f =(  0.0000000 )
                  (     1          1          0      )       (  0.0000000 )
                  (     0          0          1      )       ( -0.5000000 )

 cart.    s( 4) = (  0.5000000  0.8660254  0.0000000 )    f =(  0.0000000 )
                  ( -0.8660254  0.5000000  0.0000000 )       (  0.0000000 )
                  (  0.0000000  0.0000000  1.0000000 )       ( -2.6000000 )


      isym =  5     120 deg rotation - cryst. axis [0,0,1]       

 cryst.   s( 5) = (     0          1          0      )
                  (    -1         -1          0      )
                  (     0          0          1      )

 cart.    s( 5) = ( -0.5000000 -0.8660254  0.0000000 )
                  (  0.8660254 -0.5000000  0.0000000 )
                  (  0.0000000  0.0000000  1.0000000 )


      isym =  6     120 deg rotation - cryst. axis [0,0,-1]      

 cryst.   s( 6) = (    -1         -1          0      )
                  (     1          0          0      )
                  (     0          0          1      )

 cart.    s( 6) = ( -0.5000000  0.8660254  0.0000000 )
                  ( -0.8660254 -0.5000000  0.0000000 )
                  (  0.0000000  0.0000000  1.0000000 )


      isym =  7     inv. 180 deg rotation - cart. axis [0,1,0]   

 cryst.   s( 7) = (     1          0          0      )    f =(  0.0000000 )
                  (    -1         -1          0      )       (  0.0000000 )
                  (     0          0          1      )       ( -0.5000000 )

 cart.    s( 7) = (  1.0000000  0.0000000  0.0000000 )    f =(  0.0000000 )
                  (  0.0000000 -1.0000000  0.0000000 )       (  0.0000000 )
                  (  0.0000000  0.0000000  1.0000000 )       ( -2.6000000 )


      isym =  8     inv. 180 deg rotation - cart. axis [1,0,0]   

 cryst.   s( 8) = (    -1          0          0      )
                  (     1          1          0      )
                  (     0          0          1      )

 cart.    s( 8) = ( -1.0000000  0.0000000  0.0000000 )
                  (  0.0000000  1.0000000  0.0000000 )
                  (  0.0000000  0.0000000  1.0000000 )


      isym =  9     inv. 180 deg rotation - cryst. axis [1,-1,0] 

 cryst.   s( 9) = (     0          1          0      )    f =(  0.0000000 )
                  (     1          0          0      )       (  0.0000000 )
                  (     0          0          1      )       ( -0.5000000 )

 cart.    s( 9) = ( -0.5000000  0.8660254  0.0000000 )    f =(  0.0000000 )
                  (  0.8660254  0.5000000  0.0000000 )       (  0.0000000 )
                  (  0.0000000  0.0000000  1.0000000 )       ( -2.6000000 )


      isym = 10     inv. 180 deg rotation - cryst. axis [2,1,0]  

 cryst.   s(10) = (    -1         -1          0      )    f =(  0.0000000 )
                  (     0          1          0      )       (  0.0000000 )
                  (     0          0          1      )       ( -0.5000000 )

 cart.    s(10) = ( -0.5000000 -0.8660254  0.0000000 )    f =(  0.0000000 )
                  ( -0.8660254  0.5000000  0.0000000 )       (  0.0000000 )
                  (  0.0000000  0.0000000  1.0000000 )       ( -2.6000000 )


      isym = 11     inv. 180 deg rotation - cryst. axis [0,1,0]  

 cryst.   s(11) = (     1          1          0      )
                  (     0         -1          0      )
                  (     0          0          1      )

 cart.    s(11) = (  0.5000000  0.8660254  0.0000000 )
                  (  0.8660254 -0.5000000  0.0000000 )
                  (  0.0000000  0.0000000  1.0000000 )


      isym = 12     inv. 180 deg rotation - cryst. axis [1,1,0]  

 cryst.   s(12) = (     0         -1          0      )
                  (    -1          0          0      )
                  (     0          0          1      )

 cart.    s(12) = (  0.5000000 -0.8660254  0.0000000 )
                  ( -0.8660254 -0.5000000  0.0000000 )
                  (  0.0000000  0.0000000  1.0000000 )


     point group C_6v (6mm) 
     there are  6 classes
     the character table:

       E     2C6   2C3   C2    3s_v  3s_d 
A_1    1.00  1.00  1.00  1.00  1.00  1.00
A_2    1.00  1.00  1.00  1.00 -1.00 -1.00
B_1    1.00 -1.00  1.00 -1.00  1.00 -1.00
B_2    1.00 -1.00  1.00 -1.00 -1.00  1.00
E_1    2.00  1.00 -1.00 -2.00  0.00  0.00
E_2    2.00 -1.00 -1.00  2.00  0.00  0.00

     the symmetry operations in each class:
     E        1
     C2       2
     2C6      3    4
     2C3      5    6
     3s_v     7    9   10
     3s_d     8   12   11

   Cartesian axes

     site n.     atom                  positions (alat units)
         1           Zn  tau(   1) = (   1.6250000   0.9381942   0.0000000  )
         2           Zn  tau(   2) = (   0.0000000   1.8763884   2.6000000  )
         3           O   tau(   3) = (   1.6250000   0.9381942   3.2136000  )
         4           O   tau(   4) = (   0.0000000   1.8763884   0.6136000  )

   Crystallographic axes

     site n.     atom                  positions (cryst. coord.)
         1           Zn  tau(   1) = (  0.6666667  0.3333333  0.0000000  )
         2           Zn  tau(   2) = (  0.3333333  0.6666667  0.5000000  )
         3           O   tau(   3) = (  0.6666667  0.3333333  0.6180000  )
         4           O   tau(   4) = (  0.3333333  0.6666667  0.1180000  )

     number of k points=    72
                       cart. coord. in units 2pi/alat
        k(    1) = (   0.1503095   0.0949491   0.0961538), wk =   0.0277778
        k(    2) = (   0.1485412   0.0980119   0.0961538), wk =   0.0277778
        k(    3) = (   0.1467726   0.1010745   0.0961538), wk =   0.0277778
        k(    4) = (   0.1450043   0.1041373   0.0961538), wk =   0.0277778
        k(    5) = (   0.1432360   0.1072004   0.0961538), wk =   0.0277778
        k(    6) = (   0.1414677   0.1102632   0.0961538), wk =   0.0277778
        k(    7) = (   0.1396994   0.1133260   0.0961538), wk =   0.0277778
        k(    8) = (   0.1379311   0.1163888   0.0961538), wk =   0.0277778
        k(    9) = (   0.1361628   0.1194520   0.0961538), wk =   0.0277778
        k(   10) = (   0.1343945   0.1225148   0.0961538), wk =   0.0277778
        k(   11) = (   0.1326258   0.1255774   0.0961538), wk =   0.0277778
        k(   12) = (   0.1308575   0.1286402   0.0961538), wk =   0.0277778
        k(   13) = (   0.1290892   0.1317034   0.0961538), wk =   0.0277778
        k(   14) = (   0.1273209   0.1347662   0.0961538), wk =   0.0277778
        k(   15) = (   0.1255526   0.1378290   0.0961538), wk =   0.0277778
        k(   16) = (   0.1237843   0.1408918   0.0961538), wk =   0.0277778
        k(   17) = (   0.1220160   0.1439549   0.0961538), wk =   0.0277778
        k(   18) = (   0.1202477   0.1470177   0.0961538), wk =   0.0277778
        k(   19) = (   0.1184791   0.1500803   0.0961538), wk =   0.0277778
        k(   20) = (   0.1167108   0.1531431   0.0961538), wk =   0.0277778
        k(   21) = (   0.1149425   0.1562063   0.0961538), wk =   0.0277778
        k(   22) = (   0.1131742   0.1592691   0.0961538), wk =   0.0277778
        k(   23) = (   0.1114058   0.1623319   0.0961538), wk =   0.0277778
        k(   24) = (   0.1096375   0.1653947   0.0961538), wk =   0.0277778
        k(   25) = (   0.1078692   0.1684578   0.0961538), wk =   0.0277778
        k(   26) = (   0.1061009   0.1715206   0.0961538), wk =   0.0277778
        k(   27) = (   0.1043323   0.1745833   0.0961538), wk =   0.0277778
        k(   28) = (   0.1025640   0.1776461   0.0961538), wk =   0.0277778
        k(   29) = (   0.1007957   0.1745833   0.0961538), wk =   0.0277778
        k(   30) = (   0.0990274   0.1715205   0.0961538), wk =   0.0277778
        k(   31) = (   0.0972591   0.1684577   0.0961538), wk =   0.0277778
        k(   32) = (   0.0954908   0.1653949   0.0961538), wk =   0.0277778
        k(   33) = (   0.0937225   0.1623321   0.0961538), wk =   0.0277778
        k(   34) = (   0.0919542   0.1592693   0.0961538), wk =   0.0277778
        k(   35) = (   0.0901855   0.1562059   0.0961538), wk =   0.0277778
        k(   36) = (   0.0884172   0.1531431   0.0961538), wk =   0.0277778
        k(   37) = (   0.0866489   0.1500803   0.0961538), wk =   0.0277778
        k(   38) = (   0.0848806   0.1470175   0.0961538), wk =   0.0277778
        k(   39) = (   0.0831123   0.1439547   0.0961538), wk =   0.0277778
        k(   40) = (   0.0813440   0.1408919   0.0961538), wk =   0.0277778
        k(   41) = (   0.0795757   0.1378291   0.0961538), wk =   0.0277778
        k(   42) = (   0.0778074   0.1347663   0.0961538), wk =   0.0277778
        k(   43) = (   0.0760388   0.1317030   0.0961538), wk =   0.0277778
        k(   44) = (   0.0742705   0.1286402   0.0961538), wk =   0.0277778
        k(   45) = (   0.0725022   0.1255774   0.0961538), wk =   0.0277778
        k(   46) = (   0.0707338   0.1225146   0.0961538), wk =   0.0277778
        k(   47) = (   0.0689655   0.1194518   0.0961538), wk =   0.0277778
        k(   48) = (   0.0671972   0.1163890   0.0961538), wk =   0.0277778
        k(   49) = (   0.0654289   0.1133262   0.0961538), wk =   0.0277778
        k(   50) = (   0.0636606   0.1102634   0.0961538), wk =   0.0277778
        k(   51) = (   0.0618920   0.1072001   0.0961538), wk =   0.0277778
        k(   52) = (   0.0601237   0.1041373   0.0961538), wk =   0.0277778
        k(   53) = (   0.0583554   0.1010745   0.0961538), wk =   0.0277778
        k(   54) = (   0.0565871   0.0980117   0.0961538), wk =   0.0277778
        k(   55) = (   0.0548188   0.0949489   0.0961538), wk =   0.0277778
        k(   56) = (   0.0530505   0.0918861   0.0961538), wk =   0.0277778
        k(   57) = (   0.0512822   0.0888233   0.0961538), wk =   0.0277778
        k(   58) = (   0.0495138   0.0857605   0.0961538), wk =   0.0277778
        k(   59) = (   0.0477452   0.0826972   0.0961538), wk =   0.0277778
        k(   60) = (   0.0459769   0.0796344   0.0961538), wk =   0.0277778
        k(   61) = (   0.0442086   0.0765716   0.0961538), wk =   0.0277778
        k(   62) = (   0.0424403   0.0735088   0.0961538), wk =   0.0277778
        k(   63) = (   0.0406720   0.0704460   0.0961538), wk =   0.0277778
        k(   64) = (   0.0389037   0.0673832   0.0961538), wk =   0.0277778
        k(   65) = (   0.0371354   0.0643204   0.0961538), wk =   0.0277778
        k(   66) = (   0.0353671   0.0612576   0.0961538), wk =   0.0277778
        k(   67) = (   0.0335985   0.0581942   0.0961538), wk =   0.0277778
        k(   68) = (   0.0318302   0.0551314   0.0961538), wk =   0.0277778
        k(   69) = (   0.0300618   0.0520686   0.0961538), wk =   0.0277778
        k(   70) = (   0.0282935   0.0490058   0.0961538), wk =   0.0277778
        k(   71) = (   0.0265252   0.0459430   0.0961538), wk =   0.0277778
        k(   72) = (   0.0247569   0.0428802   0.0961538), wk =   0.0277778

                       cryst. coord.
        k(    1) = (   0.4885060   0.0229890   0.5000000), wk =   0.0277778
        k(    2) = (   0.4827590   0.0344830   0.5000000), wk =   0.0277778
        k(    3) = (   0.4770110   0.0459770   0.5000000), wk =   0.0277778
        k(    4) = (   0.4712640   0.0574710   0.5000000), wk =   0.0277778
        k(    5) = (   0.4655170   0.0689660   0.5000000), wk =   0.0277778
        k(    6) = (   0.4597700   0.0804600   0.5000000), wk =   0.0277778
        k(    7) = (   0.4540230   0.0919540   0.5000000), wk =   0.0277778
        k(    8) = (   0.4482760   0.1034480   0.5000000), wk =   0.0277778
        k(    9) = (   0.4425290   0.1149430   0.5000000), wk =   0.0277778
        k(   10) = (   0.4367820   0.1264370   0.5000000), wk =   0.0277778
        k(   11) = (   0.4310340   0.1379310   0.5000000), wk =   0.0277778
        k(   12) = (   0.4252870   0.1494250   0.5000000), wk =   0.0277778
        k(   13) = (   0.4195400   0.1609200   0.5000000), wk =   0.0277778
        k(   14) = (   0.4137930   0.1724140   0.5000000), wk =   0.0277778
        k(   15) = (   0.4080460   0.1839080   0.5000000), wk =   0.0277778
        k(   16) = (   0.4022990   0.1954020   0.5000000), wk =   0.0277778
        k(   17) = (   0.3965520   0.2068970   0.5000000), wk =   0.0277778
        k(   18) = (   0.3908050   0.2183910   0.5000000), wk =   0.0277778
        k(   19) = (   0.3850570   0.2298850   0.5000000), wk =   0.0277778
        k(   20) = (   0.3793100   0.2413790   0.5000000), wk =   0.0277778
        k(   21) = (   0.3735630   0.2528740   0.5000000), wk =   0.0277778
        k(   22) = (   0.3678160   0.2643680   0.5000000), wk =   0.0277778
        k(   23) = (   0.3620690   0.2758620   0.5000000), wk =   0.0277778
        k(   24) = (   0.3563220   0.2873560   0.5000000), wk =   0.0277778
        k(   25) = (   0.3505750   0.2988510   0.5000000), wk =   0.0277778
        k(   26) = (   0.3448280   0.3103450   0.5000000), wk =   0.0277778
        k(   27) = (   0.3390800   0.3218390   0.5000000), wk =   0.0277778
        k(   28) = (   0.3333330   0.3333330   0.5000000), wk =   0.0277778
        k(   29) = (   0.3275860   0.3275860   0.5000000), wk =   0.0277778
        k(   30) = (   0.3218390   0.3218390   0.5000000), wk =   0.0277778
        k(   31) = (   0.3160920   0.3160920   0.5000000), wk =   0.0277778
        k(   32) = (   0.3103450   0.3103450   0.5000000), wk =   0.0277778
        k(   33) = (   0.3045980   0.3045980   0.5000000), wk =   0.0277778
        k(   34) = (   0.2988510   0.2988510   0.5000000), wk =   0.0277778
        k(   35) = (   0.2931030   0.2931030   0.5000000), wk =   0.0277778
        k(   36) = (   0.2873560   0.2873560   0.5000000), wk =   0.0277778
        k(   37) = (   0.2816090   0.2816090   0.5000000), wk =   0.0277778
        k(   38) = (   0.2758620   0.2758620   0.5000000), wk =   0.0277778
        k(   39) = (   0.2701150   0.2701150   0.5000000), wk =   0.0277778
        k(   40) = (   0.2643680   0.2643680   0.5000000), wk =   0.0277778
        k(   41) = (   0.2586210   0.2586210   0.5000000), wk =   0.0277778
        k(   42) = (   0.2528740   0.2528740   0.5000000), wk =   0.0277778
        k(   43) = (   0.2471260   0.2471260   0.5000000), wk =   0.0277778
        k(   44) = (   0.2413790   0.2413790   0.5000000), wk =   0.0277778
        k(   45) = (   0.2356320   0.2356320   0.5000000), wk =   0.0277778
        k(   46) = (   0.2298850   0.2298850   0.5000000), wk =   0.0277778
        k(   47) = (   0.2241380   0.2241380   0.5000000), wk =   0.0277778
        k(   48) = (   0.2183910   0.2183910   0.5000000), wk =   0.0277778
        k(   49) = (   0.2126440   0.2126440   0.5000000), wk =   0.0277778
        k(   50) = (   0.2068970   0.2068970   0.5000000), wk =   0.0277778
        k(   51) = (   0.2011490   0.2011490   0.5000000), wk =   0.0277778
        k(   52) = (   0.1954020   0.1954020   0.5000000), wk =   0.0277778
        k(   53) = (   0.1896550   0.1896550   0.5000000), wk =   0.0277778
        k(   54) = (   0.1839080   0.1839080   0.5000000), wk =   0.0277778
        k(   55) = (   0.1781610   0.1781610   0.5000000), wk =   0.0277778
        k(   56) = (   0.1724140   0.1724140   0.5000000), wk =   0.0277778
        k(   57) = (   0.1666670   0.1666670   0.5000000), wk =   0.0277778
        k(   58) = (   0.1609200   0.1609200   0.5000000), wk =   0.0277778
        k(   59) = (   0.1551720   0.1551720   0.5000000), wk =   0.0277778
        k(   60) = (   0.1494250   0.1494250   0.5000000), wk =   0.0277778
        k(   61) = (   0.1436780   0.1436780   0.5000000), wk =   0.0277778
        k(   62) = (   0.1379310   0.1379310   0.5000000), wk =   0.0277778
        k(   63) = (   0.1321840   0.1321840   0.5000000), wk =   0.0277778
        k(   64) = (   0.1264370   0.1264370   0.5000000), wk =   0.0277778
        k(   65) = (   0.1206900   0.1206900   0.5000000), wk =   0.0277778
        k(   66) = (   0.1149430   0.1149430   0.5000000), wk =   0.0277778
        k(   67) = (   0.1091950   0.1091950   0.5000000), wk =   0.0277778
        k(   68) = (   0.1034480   0.1034480   0.5000000), wk =   0.0277778
        k(   69) = (   0.0977010   0.0977010   0.5000000), wk =   0.0277778
        k(   70) = (   0.0919540   0.0919540   0.5000000), wk =   0.0277778
        k(   71) = (   0.0862070   0.0862070   0.5000000), wk =   0.0277778
        k(   72) = (   0.0804600   0.0804600   0.5000000), wk =   0.0277778

     Dense  grid:   346889 G-vectors     FFT dimensions: (  80,  80, 128)

     Largest allocated arrays     est. size (Mb)     dimensions
        Kohn-Sham Wavefunctions         0.27 Mb     (    692,   26)
        NL pseudopotentials             0.11 Mb     (    692,   10)
        Each V/rho on FFT grid          0.20 Mb     (  12800)
        Each G-vector array             0.04 Mb     (   5421)
        G-vector shells                 0.02 Mb     (   2531)
     Largest temporary arrays     est. size (Mb)     dimensions
        Auxiliary wavefunctions         1.10 Mb     (    692,  104)
        Each subspace H/S matrix        0.01 Mb     (  20,  20)
        Each <psi_i|beta_j> matrix      0.00 Mb     (     10,   26)
     writing wfc files to a dedicated directory

     Check: negative/imaginary core charge=   -0.000103    0.000000

     The potential is recalculated from file :
     ./Zn2O2.save/charge-density.dat

     Starting wfc are   34 randomized atomic wfcs

     total cpu time spent up to now is        2.5 secs

     per-process dynamical memory:     8.7 Mb

     Band Structure Calculation
     Davidson diagonalization with overlap

     Computing kpt #:     1
     total cpu time spent up to now is        4.2 secs

     Computing kpt #:     2
     total cpu time spent up to now is        6.3 secs

     Computing kpt #:     3
     total cpu time spent up to now is        8.0 secs

     Computing kpt #:     4
     total cpu time spent up to now is        9.7 secs

     Computing kpt #:     5
     total cpu time spent up to now is       12.8 secs

     Computing kpt #:     6
     total cpu time spent up to now is       14.9 secs

     Computing kpt #:     7
     total cpu time spent up to now is       17.1 secs

     Computing kpt #:     8
     total cpu time spent up to now is       18.8 secs

     Computing kpt #:     9
     total cpu time spent up to now is       20.9 secs

     Computing kpt #:    10
     total cpu time spent up to now is       22.9 secs

     Computing kpt #:    11
     total cpu time spent up to now is       25.1 secs

     Computing kpt #:    12
     total cpu time spent up to now is       29.1 secs

     Computing kpt #:    13
     total cpu time spent up to now is       31.6 secs

     Computing kpt #:    14
     total cpu time spent up to now is       63.5 secs

     Computing kpt #:    15
     total cpu time spent up to now is       65.6 secs

     Computing kpt #:    16
     total cpu time spent up to now is       67.3 secs

     Computing kpt #:    17
     total cpu time spent up to now is       69.6 secs

     Computing kpt #:    18
     total cpu time spent up to now is       71.5 secs

     Computing kpt #:    19
     total cpu time spent up to now is       74.2 secs

     Computing kpt #:    20
     total cpu time spent up to now is       76.7 secs

     Computing kpt #:    21
     total cpu time spent up to now is       82.6 secs

     Computing kpt #:    22
     total cpu time spent up to now is       84.5 secs

     Computing kpt #:    23
     total cpu time spent up to now is       86.8 secs

     Computing kpt #:    24
     total cpu time spent up to now is       88.8 secs

     Computing kpt #:    25
     total cpu time spent up to now is       90.7 secs

     Computing kpt #:    26
     total cpu time spent up to now is       92.6 secs

     Computing kpt #:    27
     total cpu time spent up to now is       94.8 secs

     Computing kpt #:    28
     total cpu time spent up to now is       97.7 secs

     Computing kpt #:    29
     total cpu time spent up to now is      100.0 secs

     Computing kpt #:    30
     total cpu time spent up to now is      101.8 secs

     Computing kpt #:    31
     total cpu time spent up to now is      103.5 secs

     Computing kpt #:    32
     total cpu time spent up to now is      105.4 secs

     Computing kpt #:    33
     total cpu time spent up to now is      107.0 secs

     Computing kpt #:    34
     total cpu time spent up to now is      109.2 secs

     Computing kpt #:    35
     total cpu time spent up to now is      111.1 secs

     Computing kpt #:    36
     total cpu time spent up to now is      112.9 secs

     Computing kpt #:    37
     total cpu time spent up to now is      114.5 secs

     Computing kpt #:    38
     total cpu time spent up to now is      117.4 secs

     Computing kpt #:    39
     total cpu time spent up to now is      119.4 secs

     Computing kpt #:    40
     total cpu time spent up to now is      121.1 secs

     Computing kpt #:    41
     total cpu time spent up to now is      123.5 secs

     Computing kpt #:    42
     total cpu time spent up to now is      125.2 secs

     Computing kpt #:    43
     total cpu time spent up to now is      127.3 secs

     Computing kpt #:    44
     total cpu time spent up to now is      129.3 secs

     Computing kpt #:    45
     total cpu time spent up to now is      131.1 secs

     Computing kpt #:    46
     total cpu time spent up to now is      132.9 secs

     Computing kpt #:    47
     total cpu time spent up to now is      135.5 secs

     Computing kpt #:    48
     total cpu time spent up to now is      138.4 secs

     Computing kpt #:    49
     total cpu time spent up to now is      140.6 secs

     Computing kpt #:    50
     total cpu time spent up to now is      142.8 secs

     Computing kpt #:    51
     total cpu time spent up to now is      145.1 secs

     Computing kpt #:    52
     total cpu time spent up to now is      148.3 secs

     Computing kpt #:    53
     total cpu time spent up to now is      150.6 secs

     Computing kpt #:    54
     total cpu time spent up to now is      153.6 secs

     Computing kpt #:    55
     total cpu time spent up to now is      155.6 secs

     Computing kpt #:    56
     total cpu time spent up to now is      157.6 secs

     Computing kpt #:    57
     total cpu time spent up to now is      159.6 secs

     Computing kpt #:    58
     total cpu time spent up to now is      161.3 secs

     Computing kpt #:    59
     total cpu time spent up to now is      162.9 secs

     Computing kpt #:    60
     total cpu time spent up to now is      164.6 secs

     Computing kpt #:    61
     total cpu time spent up to now is      166.3 secs

     Computing kpt #:    62
     total cpu time spent up to now is      168.0 secs

     Computing kpt #:    63
     total cpu time spent up to now is      170.2 secs

     Computing kpt #:    64
     total cpu time spent up to now is      171.9 secs

     Computing kpt #:    65
     total cpu time spent up to now is      174.3 secs

     Computing kpt #:    66
     total cpu time spent up to now is      176.3 secs

     Computing kpt #:    67
     total cpu time spent up to now is      178.3 secs

     Computing kpt #:    68
     total cpu time spent up to now is      180.5 secs

     Computing kpt #:    69
     total cpu time spent up to now is      182.5 secs

     Computing kpt #:    70
     total cpu time spent up to now is      185.0 secs

     Computing kpt #:    71
     total cpu time spent up to now is      188.0 secs

     Computing kpt #:    72
     total cpu time spent up to now is      190.4 secs

     ethr =  1.92E-13,  avg # of iterations = 16.1

     total cpu time spent up to now is      190.4 secs

     End of band structure calculation

          k = 0.1503 0.0949 0.0962     band energies (ev):

  -114.1637-114.1637 -68.8279 -68.8279 -68.8189 -68.8189 -68.8174 -68.8174
    -8.4353  -8.4353   2.3079   2.3079   3.1927   3.1927   3.2709   3.2709
     4.0640   4.0640   4.1693   4.1693   4.6541   4.6541   6.9383   6.9383
     7.1524   7.1524

          k = 0.1485 0.0980 0.0962     band energies (ev):

  -114.1637-114.1637 -68.8279 -68.8279 -68.8189 -68.8189 -68.8174 -68.8174
    -8.4345  -8.4345   2.3121   2.3121   3.1891   3.1891   3.2730   3.2730
     4.0611   4.0611   4.1737   4.1737   4.6551   4.6551   6.9143   6.9143
     7.1607   7.1607

          k = 0.1468 0.1011 0.0962     band energies (ev):

  -114.1637-114.1637 -68.8279 -68.8279 -68.8189 -68.8189 -68.8174 -68.8174
    -8.4335  -8.4335   2.3180   2.3180   3.1844   3.1844   3.2757   3.2757
     4.0573   4.0573   4.1795   4.1795   4.6565   4.6565   6.8833   6.8833
     7.1699   7.1699

          k = 0.1450 0.1041 0.0962     band energies (ev):

  -114.1637-114.1637 -68.8279 -68.8279 -68.8189 -68.8189 -68.8174 -68.8174
    -8.4322  -8.4322   2.3254   2.3254   3.1786   3.1786   3.2789   3.2789
     4.0529   4.0529   4.1865   4.1865   4.6583   4.6583   6.8464   6.8464
     7.1792   7.1792

          k = 0.1432 0.1072 0.0962     band energies (ev):

  -114.1637-114.1637 -68.8279 -68.8279 -68.8189 -68.8189 -68.8174 -68.8174
    -8.4307  -8.4307   2.3345   2.3345   3.1718   3.1718   3.2827   3.2827
     4.0480   4.0480   4.1945   4.1945   4.6605   4.6605   6.8045   6.8045
     7.1882   7.1882

          k = 0.1415 0.1103 0.0962     band energies (ev):

  -114.1637-114.1637 -68.8279 -68.8279 -68.8188 -68.8188 -68.8175 -68.8175
    -8.4288  -8.4288   2.3450   2.3450   3.1641   3.1641   3.2868   3.2868
     4.0427   4.0427   4.2034   4.2034   4.6631   4.6631   6.7582   6.7582
     7.1966   7.1966

          k = 0.1397 0.1133 0.0962     band energies (ev):

  -114.1637-114.1637 -68.8279 -68.8279 -68.8188 -68.8188 -68.8175 -68.8175
    -8.4268  -8.4268   2.3570   2.3570   3.1557   3.1557   3.2914   3.2914
     4.0370   4.0370   4.2130   4.2130   4.6660   4.6660   6.7079   6.7079
     7.2045   7.2045

          k = 0.1379 0.1164 0.0962     band energies (ev):

  -114.1637-114.1637 -68.8279 -68.8279 -68.8188 -68.8188 -68.8175 -68.8175
    -8.4245  -8.4245   2.3704   2.3704   3.1466   3.1466   3.2965   3.2965
     4.0309   4.0309   4.2232   4.2232   4.6693   4.6693   6.6543   6.6543
     7.2117   7.2117

          k = 0.1362 0.1195 0.0962     band energies (ev):

  -114.1637-114.1637 -68.8279 -68.8279 -68.8188 -68.8188 -68.8175 -68.8175
    -8.4220  -8.4220   2.3851   2.3851   3.1367   3.1367   3.3019   3.3019
     4.0246   4.0246   4.2339   4.2339   4.6728   4.6728   6.5978   6.5978
     7.2183   7.2183

          k = 0.1344 0.1225 0.0962     band energies (ev):

  -114.1637-114.1637 -68.8279 -68.8279 -68.8188 -68.8188 -68.8176 -68.8176
    -8.4194  -8.4194   2.4010   2.4010   3.1263   3.1263   3.3079   3.3079
     4.0179   4.0179   4.2451   4.2451   4.6767   4.6767   6.5389   6.5389
     7.2244   7.2244

          k = 0.1326 0.1256 0.0962     band energies (ev):

  -114.1637-114.1637 -68.8279 -68.8279 -68.8188 -68.8188 -68.8176 -68.8176
    -8.4166  -8.4166   2.4180   2.4180   3.1153   3.1153   3.3143   3.3143
     4.0109   4.0109   4.2566   4.2566   4.6808   4.6808   6.4782   6.4782
     7.2301   7.2301

          k = 0.1309 0.1286 0.0962     band energies (ev):

  -114.1637-114.1637 -68.8279 -68.8279 -68.8188 -68.8188 -68.8176 -68.8176
    -8.4137  -8.4137   2.4360   2.4360   3.1038   3.1038   3.3213   3.3213
     4.0036   4.0036   4.2684   4.2684   4.6851   4.6852   6.4162   6.4162
     7.2353   7.2353

          k = 0.1291 0.1317 0.0962     band energies (ev):

  -114.1637-114.1637 -68.8279 -68.8279 -68.8187 -68.8187 -68.8177 -68.8177
    -8.4107  -8.4107   2.4549   2.4549   3.0917   3.0917   3.3289   3.3289
     3.9959   3.9959   4.2804   4.2804   4.6896   4.6896   6.3534   6.3534
     7.2401   7.2401

          k = 0.1273 0.1348 0.0962     band energies (ev):

  -114.1637-114.1637 -68.8279 -68.8279 -68.8187 -68.8187 -68.8177 -68.8177
    -8.4076  -8.4076   2.4744   2.4744   3.0793   3.0793   3.3371   3.3371
     3.9878   3.9878   4.2924   4.2924   4.6942   4.6942   6.2905   6.2905
     7.2446   7.2446

          k = 0.1256 0.1378 0.0962     band energies (ev):

  -114.1637-114.1637 -68.8279 -68.8279 -68.8187 -68.8187 -68.8178 -68.8178
    -8.4045  -8.4045   2.4945   2.4945   3.0665   3.0665   3.3459   3.3459
     3.9793   3.9793   4.3046   4.3046   4.6989   4.6989   6.2280   6.2280
     7.2488   7.2488

          k = 0.1238 0.1409 0.0962     band energies (ev):

  -114.1637-114.1637 -68.8279 -68.8279 -68.8187 -68.8187 -68.8178 -68.8178
    -8.4014  -8.4014   2.5149   2.5149   3.0535   3.0535   3.3553   3.3553
     3.9704   3.9704   4.3167   4.3167   4.7034   4.7034   6.1666   6.1666
     7.2527   7.2527

          k = 0.1220 0.1440 0.0962     band energies (ev):

  -114.1637-114.1637 -68.8279 -68.8279 -68.8186 -68.8186 -68.8178 -68.8178
    -8.3983  -8.3983   2.5356   2.5356   3.0402   3.0402   3.3653   3.3653
     3.9611   3.9611   4.3286   4.3286   4.7078   4.7078   6.1070   6.1070
     7.2563   7.2563

          k = 0.1202 0.1470 0.0962     band energies (ev):

  -114.1637-114.1637 -68.8279 -68.8279 -68.8186 -68.8186 -68.8179 -68.8179
    -8.3953  -8.3953   2.5562   2.5562   3.0269   3.0269   3.3758   3.3758
     3.9515   3.9515   4.3403   4.3403   4.7119   4.7119   6.0497   6.0497
     7.2596   7.2596

          k = 0.1185 0.1501 0.0962     band energies (ev):

  -114.1637-114.1637 -68.8279 -68.8279 -68.8186 -68.8186 -68.8179 -68.8179
    -8.3924  -8.3924   2.5765   2.5765   3.0136   3.0136   3.3867   3.3867
     3.9417   3.9417   4.3517   4.3517   4.7155   4.7155   5.9955   5.9955
     7.2626   7.2626

          k = 0.1167 0.1531 0.0962     band energies (ev):

  -114.1637-114.1637 -68.8279 -68.8279 -68.8186 -68.8186 -68.8180 -68.8180
    -8.3897  -8.3897   2.5963   2.5963   3.0004   3.0004   3.3979   3.3979
     3.9317   3.9317   4.3626   4.3626   4.7186   4.7186   5.9449   5.9449
     7.2654   7.2654

          k = 0.1149 0.1562 0.0962     band energies (ev):

  -114.1637-114.1637 -68.8279 -68.8279 -68.8185 -68.8185 -68.8180 -68.8180
    -8.3871  -8.3871   2.6153   2.6153   2.9877   2.9877   3.4091   3.4091
     3.9218   3.9218   4.3729   4.3729   4.7210   4.7210   5.8986   5.8986
     7.2678   7.2678

          k = 0.1132 0.1593 0.0962     band energies (ev):

  -114.1637-114.1637 -68.8279 -68.8279 -68.8185 -68.8185 -68.8181 -68.8181
    -8.3848  -8.3848   2.6331   2.6331   2.9755   2.9755   3.4203   3.4203
     3.9121   3.9121   4.3826   4.3826   4.7225   4.7225   5.8573   5.8573
     7.2700   7.2700

          k = 0.1114 0.1623 0.0962     band energies (ev):

  -114.1637-114.1637 -68.8279 -68.8279 -68.8185 -68.8185 -68.8181 -68.8181
    -8.3827  -8.3827   2.6494   2.6494   2.9642   2.9642   3.4309   3.4309
     3.9029   3.9029   4.3914   4.3914   4.7231   4.7231   5.8216   5.8216
     7.2719   7.2719

          k = 0.1096 0.1654 0.0962     band energies (ev):

  -114.1637-114.1637 -68.8279 -68.8279 -68.8185 -68.8185 -68.8181 -68.8181
    -8.3809  -8.3809   2.6636   2.6636   2.9541   2.9541   3.4406   3.4406
     3.8945   3.8945   4.3992   4.3992   4.7229   4.7229   5.7918   5.7918
     7.2734   7.2734

          k = 0.1079 0.1685 0.0962     band energies (ev):

  -114.1637-114.1637 -68.8279 -68.8279 -68.8184 -68.8184 -68.8182 -68.8182
    -8.3795  -8.3795   2.6754   2.6754   2.9457   2.9457   3.4490   3.4490
     3.8873   3.8873   4.4058   4.4058   4.7220   4.7220   5.7684   5.7684
     7.2746   7.2746

          k = 0.1061 0.1715 0.0962     band energies (ev):

  -114.1637-114.1637 -68.8279 -68.8279 -68.8184 -68.8184 -68.8182 -68.8182
    -8.3784  -8.3784   2.6843   2.6843   2.9393   2.9393   3.4556   3.4556
     3.8817   3.8817   4.4109   4.4109   4.7206   4.7206   5.7516   5.7516
     7.2755   7.2755

          k = 0.1043 0.1746 0.0962     band energies (ev):

  -114.1637-114.1637 -68.8279 -68.8279 -68.8184 -68.8184 -68.8182 -68.8182
    -8.3777  -8.3777   2.6897   2.6897   2.9353   2.9353   3.4598   3.4598
     3.8781   3.8781   4.4142   4.4142   4.7194   4.7194   5.7416   5.7416
     7.2760   7.2760

          k = 0.1026 0.1776 0.0962     band energies (ev):

  -114.1637-114.1637 -68.8279 -68.8279 -68.8184 -68.8184 -68.8182 -68.8182
    -8.3775  -8.3775   2.6916   2.6916   2.9340   2.9340   3.4613   3.4613
     3.8769   3.8769   4.4153   4.4153   4.7188   4.7188   5.7383   5.7383
     7.2762   7.2762

          k = 0.1008 0.1746 0.0962     band energies (ev):

  -114.1637-114.1637 -68.8279 -68.8279 -68.8184 -68.8184 -68.8182 -68.8182
    -8.3778  -8.3778   2.6898   2.6898   2.9353   2.9353   3.4597   3.4597
     3.8782   3.8782   4.4141   4.4141   4.7196   4.7196   5.7415   5.7415
     7.2760   7.2760

          k = 0.0990 0.1715 0.0962     band energies (ev):

  -114.1637-114.1637 -68.8279 -68.8279 -68.8184 -68.8184 -68.8182 -68.8182
    -8.3785  -8.3785   2.6846   2.6846   2.9388   2.9388   3.4551   3.4551
     3.8819   3.8819   4.4102   4.4102   4.7225   4.7225   5.7510   5.7510
     7.2755   7.2755

          k = 0.0973 0.1685 0.0962     band energies (ev):

  -114.1637-114.1637 -68.8279 -68.8279 -68.8184 -68.8184 -68.8182 -68.8182
    -8.3798  -8.3798   2.6766   2.6766   2.9443   2.9443   3.4474   3.4474
     3.8880   3.8880   4.4035   4.4035   4.7280   4.7280   5.7664   5.7664
     7.2746   7.2746

          k = 0.0955 0.1654 0.0962     band energies (ev):

  -114.1637-114.1637 -68.8279 -68.8279 -68.8184 -68.8184 -68.8181 -68.8181
    -8.3816  -8.3816   2.6661   2.6661   2.9511   2.9511   3.4370   3.4370
     3.8961   3.8961   4.3943   4.3943   4.7366   4.7366   5.7873   5.7873
     7.2733   7.2733

          k = 0.0937 0.1623 0.0962     band energies (ev):

  -114.1637-114.1637 -68.8279 -68.8279 -68.8185 -68.8185 -68.8181 -68.8181
    -8.3840  -8.3840   2.6538   2.6538   2.9587   2.9587   3.4242   3.4242
     3.9057   3.9057   4.3825   4.3825   4.7486   4.7486   5.8133   5.8133
     7.2716   7.2716

          k = 0.0920 0.1593 0.0962     band energies (ev):

  -114.1637-114.1637 -68.8279 -68.8279 -68.8185 -68.8185 -68.8181 -68.8181
    -8.3871  -8.3871   2.6400   2.6400   2.9668   2.9668   3.4096   3.4096
     3.9162   3.9162   4.3687   4.3687   4.7640   4.7640   5.8440   5.8440
     7.2696   7.2696

          k = 0.0902 0.1562 0.0962     band energies (ev):

  -114.1637-114.1637 -68.8279 -68.8279 -68.8185 -68.8185 -68.8180 -68.8180
    -8.3907  -8.3907   2.6252   2.6252   2.9748   2.9748   3.3935   3.3935
     3.9273   3.9273   4.3532   4.3532   4.7828   4.7828   5.8790   5.8790
     7.2673   7.2673

          k = 0.0884 0.1531 0.0962     band energies (ev):

  -114.1637-114.1637 -68.8279 -68.8279 -68.8185 -68.8185 -68.8180 -68.8180
    -8.3950  -8.3950   2.6097   2.6097   2.9826   2.9826   3.3765   3.3765
     3.9385   3.9385   4.3365   4.3365   4.8051   4.8051   5.9179   5.9179
     7.2646   7.2646

          k = 0.0866 0.1501 0.0962     band energies (ev):

  -114.1637-114.1637 -68.8279 -68.8279 -68.8185 -68.8185 -68.8180 -68.8180
    -8.4000  -8.4000   2.5936   2.5936   2.9899   2.9899   3.3589   3.3589
     3.9494   3.9494   4.3188   4.3188   4.8305   4.8305   5.9603   5.9603
     7.2616   7.2616

          k = 0.0849 0.1470 0.0962     band energies (ev):

  -114.1637-114.1637 -68.8279 -68.8279 -68.8185 -68.8185 -68.8179 -68.8179
    -8.4056  -8.4056   2.5774   2.5774   2.9965   2.9965   3.3411   3.3411
     3.9597   3.9597   4.3005   4.3005   4.8590   4.8590   6.0059   6.0059
     7.2583   7.2583

          k = 0.0831 0.1440 0.0962     band energies (ev):

  -114.1637-114.1637 -68.8279 -68.8279 -68.8185 -68.8185 -68.8179 -68.8179
    -8.4119  -8.4119   2.5610   2.5610   3.0022   3.0022   3.3234   3.3234
     3.9693   3.9693   4.2820   4.2820   4.8905   4.8905   6.0545   6.0545
     7.2548   7.2548

          k = 0.0813 0.1409 0.0962     band energies (ev):

  -114.1637-114.1637 -68.8279 -68.8279 -68.8185 -68.8185 -68.8179 -68.8179
    -8.4188  -8.4188   2.5448   2.5448   3.0068   3.0068   3.3060   3.3060
     3.9780   3.9780   4.2634   4.2634   4.9248   4.9248   6.1057   6.1057
     7.2510   7.2510

          k = 0.0796 0.1378 0.0962     band energies (ev):

  -114.1637-114.1637 -68.8279 -68.8279 -68.8185 -68.8185 -68.8178 -68.8178
    -8.4264  -8.4264   2.5287   2.5287   3.0104   3.0104   3.2892   3.2892
     3.9857   3.9857   4.2449   4.2449   4.9616   4.9616   6.1592   6.1592
     7.2471   7.2471

          k = 0.0778 0.1348 0.0962     band energies (ev):

  -114.1637-114.1637 -68.8279 -68.8279 -68.8185 -68.8185 -68.8178 -68.8178
    -8.4347  -8.4347   2.5131   2.5131   3.0126   3.0126   3.2731   3.2731
     3.9924   3.9924   4.2267   4.2267   5.0008   5.0008   6.2148   6.2148
     7.2431   7.2431

          k = 0.0760 0.1317 0.0962     band energies (ev):

  -114.1637-114.1637 -68.8279 -68.8279 -68.8185 -68.8185 -68.8177 -68.8177
    -8.4437  -8.4437   2.4980   2.4980   3.0136   3.0136   3.2579   3.2579
     3.9980   3.9980   4.2089   4.2089   5.0423   5.0423   6.2722   6.2722
     7.2391   7.2391

          k = 0.0743 0.1286 0.0962     band energies (ev):

  -114.1637-114.1637 -68.8279 -68.8279 -68.8185 -68.8185 -68.8177 -68.8177
    -8.4532  -8.4532   2.4835   2.4835   3.0132   3.0132   3.2434   3.2434
     4.0027   4.0027   4.1917   4.1917   5.0858   5.0858   6.3311   6.3311
     7.2350   7.2350

          k = 0.0725 0.1256 0.0962     band energies (ev):

  -114.1637-114.1637 -68.8279 -68.8279 -68.8185 -68.8185 -68.8177 -68.8177
    -8.4634  -8.4634   2.4697   2.4697   3.0115   3.0115   3.2298   3.2298
     4.0064   4.0064   4.1751   4.1751   5.1311   5.1311   6.3913   6.3913
     7.2311   7.2311

          k = 0.0707 0.1225 0.0962     band energies (ev):

  -114.1637-114.1637 -68.8279 -68.8279 -68.8185 -68.8185 -68.8176 -68.8176
    -8.4742  -8.4742   2.4568   2.4568   3.0086   3.0086   3.2169   3.2169
     4.0092   4.0092   4.1592   4.1592   5.1781   5.1781   6.4525   6.4525
     7.2275   7.2275

          k = 0.0690 0.1195 0.0962     band energies (ev):

  -114.1637-114.1637 -68.8279 -68.8279 -68.8184 -68.8184 -68.8176 -68.8176
    -8.4855  -8.4855   2.4447   2.4447   3.0045   3.0045   3.2047   3.2047
     4.0113   4.0113   4.1441   4.1441   5.2266   5.2266   6.5144   6.5144
     7.2242   7.2242

          k = 0.0672 0.1164 0.0962     band energies (ev):

  -114.1637-114.1637 -68.8279 -68.8279 -68.8184 -68.8184 -68.8176 -68.8176
    -8.4974  -8.4974   2.4335   2.4335   2.9993   2.9993   3.1930   3.1930
     4.0127   4.0127   4.1298   4.1298   5.2763   5.2763   6.5769   6.5769
     7.2214   7.2214

          k = 0.0654 0.1133 0.0962     band energies (ev):

  -114.1637-114.1637 -68.8279 -68.8279 -68.8184 -68.8184 -68.8175 -68.8175
    -8.5099  -8.5099   2.4234   2.4234   2.9932   2.9932   3.1816   3.1816
     4.0134   4.0134   4.1164   4.1164   5.3271   5.3271   6.6394   6.6394
     7.2194   7.2194

          k = 0.0637 0.1103 0.0962     band energies (ev):

  -114.1637-114.1637 -68.8279 -68.8279 -68.8183 -68.8183 -68.8175 -68.8175
    -8.5228  -8.5228   2.4144   2.4144   2.9864   2.9864   3.1703   3.1703
     4.0135   4.0135   4.1040   4.1040   5.3788   5.3788   6.7019   6.7019
     7.2184   7.2184

          k = 0.0619 0.1072 0.0962     band energies (ev):

  -114.1637-114.1637 -68.8280 -68.8280 -68.8183 -68.8183 -68.8175 -68.8175
    -8.5361  -8.5361   2.4064   2.4064   2.9791   2.9791   3.1589   3.1589
     4.0132   4.0132   4.0926   4.0926   5.4311   5.4311   6.7638   6.7638
     7.2186   7.2186

          k = 0.0601 0.1041 0.0962     band energies (ev):

  -114.1637-114.1637 -68.8280 -68.8280 -68.8183 -68.8183 -68.8174 -68.8174
    -8.5499  -8.5499   2.3995   2.3995   2.9713   2.9713   3.1474   3.1474
     4.0124   4.0124   4.0820   4.0820   5.4839   5.4839   6.8248   6.8248
     7.2205   7.2205

          k = 0.0584 0.1011 0.0962     band energies (ev):

  -114.1637-114.1637 -68.8280 -68.8280 -68.8182 -68.8182 -68.8174 -68.8174
    -8.5640  -8.5640   2.3938   2.3938   2.9632   2.9632   3.1355   3.1355
     4.0114   4.0114   4.0725   4.0725   5.5369   5.5369   6.8842   6.8842
     7.2247   7.2247

          k = 0.0566 0.0980 0.0962     band energies (ev):

  -114.1637-114.1637 -68.8280 -68.8280 -68.8182 -68.8182 -68.8174 -68.8174
    -8.5784  -8.5784   2.3892   2.3892   2.9550   2.9550   3.1233   3.1233
     4.0100   4.0100   4.0639   4.0639   5.5897   5.5897   6.9414   6.9414
     7.2318   7.2318

          k = 0.0548 0.0949 0.0962     band energies (ev):

  -114.1637-114.1637 -68.8280 -68.8280 -68.8181 -68.8181 -68.8173 -68.8173
    -8.5931  -8.5931   2.3857   2.3857   2.9466   2.9466   3.1105   3.1105
     4.0085   4.0085   4.0561   4.0561   5.6423   5.6423   6.9952   6.9952
     7.2431   7.2431

          k = 0.0531 0.0919 0.0962     band energies (ev):

  -114.1637-114.1637 -68.8280 -68.8280 -68.8181 -68.8181 -68.8173 -68.8173
    -8.6080  -8.6080   2.3833   2.3833   2.9382   2.9382   3.0973   3.0973
     4.0069   4.0069   4.0492   4.0492   5.6941   5.6941   7.0445   7.0445
     7.2598   7.2598

          k = 0.0513 0.0888 0.0962     band energies (ev):

  -114.1637-114.1637 -68.8280 -68.8280 -68.8180 -68.8180 -68.8173 -68.8173
    -8.6231  -8.6231   2.3820   2.3820   2.9298   2.9298   3.0836   3.0836
     4.0052   4.0052   4.0431   4.0431   5.7449   5.7449   7.0878   7.0878
     7.2834   7.2834

          k = 0.0495 0.0858 0.0962     band energies (ev):

  -114.1637-114.1637 -68.8280 -68.8280 -68.8180 -68.8180 -68.8172 -68.8172
    -8.6383  -8.6383   2.3817   2.3817   2.9215   2.9215   3.0694   3.0694
     4.0035   4.0035   4.0376   4.0376   5.7944   5.7944   7.1246   7.1246
     7.3146   7.3146

          k = 0.0477 0.0827 0.0962     band energies (ev):

  -114.1638-114.1638 -68.8280 -68.8280 -68.8179 -68.8179 -68.8172 -68.8172
    -8.6535  -8.6535   2.3824   2.3824   2.9133   2.9133   3.0548   3.0548
     4.0019   4.0019   4.0328   4.0328   5.8422   5.8422   7.1559   7.1559
     7.3526   7.3526

          k = 0.0460 0.0796 0.0962     band energies (ev):

  -114.1638-114.1638 -68.8280 -68.8280 -68.8179 -68.8179 -68.8172 -68.8172
    -8.6688  -8.6688   2.3841   2.3841   2.9053   2.9053   3.0399   3.0399
     4.0004   4.0004   4.0285   4.0285   5.8880   5.8880   7.1837   7.1837
     7.3955   7.3955

          k = 0.0442 0.0766 0.0962     band energies (ev):

  -114.1638-114.1638 -68.8280 -68.8280 -68.8178 -68.8178 -68.8172 -68.8172
    -8.6841  -8.6841   2.3867   2.3867   2.8974   2.8974   3.0246   3.0246
     3.9991   3.9991   4.0248   4.0248   5.9313   5.9313   7.2103   7.2103
     7.4411   7.4411

          k = 0.0424 0.0735 0.0962     band energies (ev):

  -114.1638-114.1638 -68.8280 -68.8280 -68.8177 -68.8177 -68.8171 -68.8171
    -8.6992  -8.6992   2.3902   2.3902   2.8896   2.8896   3.0091   3.0091
     3.9980   3.9980   4.0214   4.0214   5.9719   5.9719   7.2373   7.2373
     7.4879   7.4879

          k = 0.0407 0.0704 0.0962     band energies (ev):

  -114.1638-114.1638 -68.8280 -68.8280 -68.8177 -68.8177 -68.8171 -68.8171
    -8.7142  -8.7142   2.3944   2.3944   2.8820   2.8820   2.9935   2.9935
     3.9970   3.9970   4.0184   4.0184   6.0094   6.0094   7.2661   7.2661
     7.5347   7.5347

          k = 0.0389 0.0674 0.0962     band energies (ev):

  -114.1638-114.1638 -68.8280 -68.8280 -68.8176 -68.8176 -68.8171 -68.8171
    -8.7290  -8.7290   2.3994   2.3994   2.8745   2.8745   2.9778   2.9778
     3.9963   3.9963   4.0158   4.0158   6.0437   6.0437   7.2972   7.2972
     7.5809   7.5809

          k = 0.0371 0.0643 0.0962     band energies (ev):

  -114.1638-114.1638 -68.8280 -68.8280 -68.8176 -68.8176 -68.8171 -68.8171
    -8.7436  -8.7436   2.4050   2.4050   2.8672   2.8672   2.9621   2.9621
     3.9957   3.9957   4.0134   4.0134   6.0747   6.0747   7.3311   7.3311
     7.6259   7.6259

          k = 0.0354 0.0613 0.0962     band energies (ev):

  -114.1638-114.1638 -68.8280 -68.8280 -68.8175 -68.8175 -68.8170 -68.8170
    -8.7579  -8.7579   2.4111   2.4111   2.8601   2.8601   2.9466   2.9466
     3.9954   3.9954   4.0113   4.0113   6.1022   6.1022   7.3680   7.3680
     7.6695   7.6695

          k = 0.0336 0.0582 0.0962     band energies (ev):

  -114.1638-114.1638 -68.8280 -68.8280 -68.8174 -68.8174 -68.8170 -68.8170
    -8.7718  -8.7718   2.4178   2.4178   2.8532   2.8532   2.9312   2.9312
     3.9952   3.9952   4.0094   4.0094   6.1263   6.1263   7.4078   7.4078
     7.7113   7.7113

          k = 0.0318 0.0551 0.0962     band energies (ev):

  -114.1638-114.1638 -68.8280 -68.8280 -68.8174 -68.8174 -68.8170 -68.8170
    -8.7853  -8.7853   2.4248   2.4248   2.8464   2.8464   2.9162   2.9162
     3.9951   3.9951   4.0078   4.0078   6.1471   6.1471   7.4503   7.4503
     7.7513   7.7513

          k = 0.0301 0.0521 0.0962     band energies (ev):

  -114.1638-114.1638 -68.8280 -68.8280 -68.8173 -68.8173 -68.8170 -68.8170
    -8.7984  -8.7984   2.4322   2.4322   2.8398   2.8398   2.9016   2.9016
     3.9951   3.9951   4.0064   4.0064   6.1648   6.1648   7.4953   7.4953
     7.7894   7.7894

          k = 0.0283 0.0490 0.0962     band energies (ev):

  -114.1638-114.1638 -68.8280 -68.8280 -68.8173 -68.8173 -68.8170 -68.8170
    -8.8110  -8.8110   2.4398   2.4398   2.8334   2.8334   2.8874   2.8874
     3.9953   3.9953   4.0051   4.0051   6.1797   6.1797   7.5422   7.5422
     7.8253   7.8253

          k = 0.0265 0.0459 0.0962     band energies (ev):

  -114.1638-114.1638 -68.8280 -68.8280 -68.8172 -68.8172 -68.8169 -68.8169
    -8.8230  -8.8230   2.4476   2.4476   2.8271   2.8271   2.8737   2.8737
     3.9955   3.9955   4.0041   4.0041   6.1920   6.1920   7.5907   7.5907
     7.8592   7.8592

          k = 0.0248 0.0429 0.0962     band energies (ev):

  -114.1638-114.1638 -68.8280 -68.8280 -68.8172 -68.8172 -68.8169 -68.8169
    -8.8345  -8.8345   2.4555   2.4555   2.8210   2.8210   2.8607   2.8607
     3.9958   3.9958   4.0031   4.0031   6.2019   6.2019   7.6401   7.6401
     7.8909   7.8909

     Writing output data file Zn2O2.save
 
     init_run     :      1.24s CPU      1.69s WALL (       1 calls)
     electrons    :    129.40s CPU    187.89s WALL (       1 calls)

     Called by init_run:
     wfcinit      :      0.00s CPU      0.00s WALL (       1 calls)
     potinit      :      0.13s CPU      0.51s WALL (       1 calls)

     Called by electrons:
     c_bands      :    129.39s CPU    187.89s WALL (       1 calls)
     v_of_rho     :      0.00s CPU      0.01s WALL (       1 calls)
     v_h          :      0.00s CPU      0.00s WALL (       1 calls)
     v_xc         :      0.00s CPU      0.00s WALL (       1 calls)

     Called by c_bands:
     init_us_2    :      0.00s CPU      0.02s WALL (      72 calls)
     cegterg      :    103.17s CPU    104.36s WALL (      72 calls)

     Called by sum_band:

     Called by *egterg:
     h_psi        :     83.71s CPU     84.46s WALL (    1303 calls)
     g_psi        :      0.33s CPU      0.51s WALL (    1159 calls)
     cdiaghg      :     12.77s CPU     12.65s WALL (    1231 calls)
     cegterg:over :      5.06s CPU      5.07s WALL (    1159 calls)
     cegterg:upda :      4.96s CPU      5.33s WALL (    1159 calls)
     cegterg:last :      2.74s CPU      2.94s WALL (     360 calls)
     cdiaghg:chol :      0.80s CPU      0.51s WALL (    1231 calls)
     cdiaghg:inve :      0.04s CPU      0.12s WALL (    1231 calls)
     cdiaghg:para :      0.70s CPU      0.85s WALL (    2462 calls)

     Called by h_psi:
     h_psi:vloc   :     82.97s CPU     83.29s WALL (    1303 calls)
     h_psi:vnl    :      0.66s CPU      0.99s WALL (    1303 calls)
     add_vuspsi   :      0.10s CPU      0.40s WALL (    1303 calls)

     General routines
     calbec       :      0.56s CPU      0.58s WALL (    1303 calls)
     fft          :      0.02s CPU      0.02s WALL (       4 calls)
     fftw         :     82.17s CPU     80.77s WALL (   58036 calls)
     davcio       :      0.00s CPU      0.10s WALL (      72 calls)
 
     Parallel routines
     fft_scatter  :     62.66s CPU     32.35s WALL (   58040 calls)
 
     PWSCF        :  2m11.68s CPU     3m16.33s WALL

 
   This run was terminated on:  22:57:49  26Jun2013            

=------------------------------------------------------------------------------=
   JOB DONE.
=------------------------------------------------------------------------------=
Application 2755853 resources: utime ~9345s, stime ~86s, Rss ~35628, inblocks ~305693, outblocks ~2931703
