
     Program PWSCF v.5.0.2 (svn rev. 9656) starts on 26Jun2013 at 22:54:19 

     This program is part of the open-source Quantum ESPRESSO suite
     for quantum simulation of materials; please cite
         "P. Giannozzi et al., J. Phys.:Condens. Matter 21 395502 (2009);
          URL http://www.quantum-espresso.org", 
     in publications or presentations arising from this work. More details at
     http://www.quantum-espresso.org/quote.php

     Parallel version (MPI), running on    64 processors
     R & G space division:  proc/nbgrp/npool/nimage =      64

     Current dimensions of program PWSCF are:
     Max number of different atomic species (ntypx) = 10
     Max number of k-points (npk) =  40000
     Max angular momentum in pseudopotentials (lmaxx) =  3
     Waiting for input...
     Reading input from standard input

     Atomic positions and unit cell read from directory:
     ./Zn2O2.save/
 

     Subspace diagonalization in iterative solution of the eigenvalue problem:
     scalapack distributed-memory algorithm (size of sub-group:  5*  5 procs)


   Info: using nr1, nr2, nr3 values from input
 
     Parallelization info
     --------------------
     sticks:   dense  smooth     PW     G-vecs:    dense   smooth      PW
     Min          64      64     17                 5414     5414     743
     Max          65      65     19                 5423     5423     748
     Sum        4153    4153   1111               346889   346889   47639
 


     bravais-lattice index     =            0
     lattice parameter (alat)  =       1.8897  a.u.
     unit-cell volume          =     320.9943 (a.u.)^3
     number of atoms/cell      =            4
     number of atomic types    =            2
     number of electrons       =        52.00
     number of Kohn-Sham states=           26
     kinetic-energy cutoff     =     400.0000  Ry
     charge density cutoff     =    1600.0000  Ry
     Exchange-correlation      = SLA+PW ( 1 4 0 0 0)
     EXX-fraction              =        0.00

     celldm(1)=   1.889726  celldm(2)=   0.000000  celldm(3)=   0.000000
     celldm(4)=   0.000000  celldm(5)=   0.000000  celldm(6)=   0.000000

     crystal axes: (cart. coord. in units of alat)
               a(1) = (   3.250000   0.000000   0.000000 )  
               a(2) = (  -1.625000   2.814583   0.000000 )  
               a(3) = (   0.000000   0.000000   5.200000 )  

     reciprocal axes: (cart. coord. in units 2 pi/alat)
               b(1) = (  0.307692  0.177646  0.000000 )  
               b(2) = (  0.000000  0.355292  0.000000 )  
               b(3) = (  0.000000  0.000000  0.192308 )  


     PseudoPot. # 1 for Zn read from file:
     ../../0_pp/Zn.pw-spn-nc.UPF
     MD5 check sum: 9a837cc8ef69fdaee1504d3748345681
     Pseudo is Norm-conserving + core correction, Zval = 20.0
     Generated using "atomic" code by A. Dal Corso  v.5.0.2 svn rev. 9656
     Using radial grid of 1201 points,  2 beta functions with: 
                l(1) =   0
                l(2) =   1

     PseudoPot. # 2 for  O read from file:
     ../../0_pp/O.pw-n-nc.UPF
     MD5 check sum: 22ead4914353326b5879bd0c3df232e0
     Pseudo is Norm-conserving + core correction, Zval =  6.0
     Generated using "atomic" code by A. Dal Corso  v.5.0.2 svn rev. 9656
     Using radial grid of 1095 points,  1 beta functions with: 
                l(1) =   0

     atomic species   valence    mass     pseudopotential
        Zn            20.00    65.38000     Zn( 1.00)
        O              6.00    15.99900      O( 1.00)

     12 Sym. Ops. (no inversion) found ( 6 have fractional translation)


                                    s                        frac. trans.

      isym =  1     identity                                     

 cryst.   s( 1) = (     1          0          0      )
                  (     0          1          0      )
                  (     0          0          1      )

 cart.    s( 1) = (  1.0000000  0.0000000  0.0000000 )
                  (  0.0000000  1.0000000  0.0000000 )
                  (  0.0000000  0.0000000  1.0000000 )


      isym =  2     180 deg rotation - cart. axis [0,0,1]        

 cryst.   s( 2) = (    -1          0          0      )    f =(  0.0000000 )
                  (     0         -1          0      )       (  0.0000000 )
                  (     0          0          1      )       ( -0.5000000 )

 cart.    s( 2) = ( -1.0000000  0.0000000  0.0000000 )    f =(  0.0000000 )
                  (  0.0000000 -1.0000000  0.0000000 )       (  0.0000000 )
                  (  0.0000000  0.0000000  1.0000000 )       ( -2.6000000 )


      isym =  3      60 deg rotation - cryst. axis [0,0,1]       

 cryst.   s( 3) = (     1          1          0      )    f =(  0.0000000 )
                  (    -1          0          0      )       (  0.0000000 )
                  (     0          0          1      )       ( -0.5000000 )

 cart.    s( 3) = (  0.5000000 -0.8660254  0.0000000 )    f =(  0.0000000 )
                  (  0.8660254  0.5000000  0.0000000 )       (  0.0000000 )
                  (  0.0000000  0.0000000  1.0000000 )       ( -2.6000000 )


      isym =  4      60 deg rotation - cryst. axis [0,0,-1]      

 cryst.   s( 4) = (     0         -1          0      )    f =(  0.0000000 )
                  (     1          1          0      )       (  0.0000000 )
                  (     0          0          1      )       ( -0.5000000 )

 cart.    s( 4) = (  0.5000000  0.8660254  0.0000000 )    f =(  0.0000000 )
                  ( -0.8660254  0.5000000  0.0000000 )       (  0.0000000 )
                  (  0.0000000  0.0000000  1.0000000 )       ( -2.6000000 )


      isym =  5     120 deg rotation - cryst. axis [0,0,1]       

 cryst.   s( 5) = (     0          1          0      )
                  (    -1         -1          0      )
                  (     0          0          1      )

 cart.    s( 5) = ( -0.5000000 -0.8660254  0.0000000 )
                  (  0.8660254 -0.5000000  0.0000000 )
                  (  0.0000000  0.0000000  1.0000000 )


      isym =  6     120 deg rotation - cryst. axis [0,0,-1]      

 cryst.   s( 6) = (    -1         -1          0      )
                  (     1          0          0      )
                  (     0          0          1      )

 cart.    s( 6) = ( -0.5000000  0.8660254  0.0000000 )
                  ( -0.8660254 -0.5000000  0.0000000 )
                  (  0.0000000  0.0000000  1.0000000 )


      isym =  7     inv. 180 deg rotation - cart. axis [0,1,0]   

 cryst.   s( 7) = (     1          0          0      )    f =(  0.0000000 )
                  (    -1         -1          0      )       (  0.0000000 )
                  (     0          0          1      )       ( -0.5000000 )

 cart.    s( 7) = (  1.0000000  0.0000000  0.0000000 )    f =(  0.0000000 )
                  (  0.0000000 -1.0000000  0.0000000 )       (  0.0000000 )
                  (  0.0000000  0.0000000  1.0000000 )       ( -2.6000000 )


      isym =  8     inv. 180 deg rotation - cart. axis [1,0,0]   

 cryst.   s( 8) = (    -1          0          0      )
                  (     1          1          0      )
                  (     0          0          1      )

 cart.    s( 8) = ( -1.0000000  0.0000000  0.0000000 )
                  (  0.0000000  1.0000000  0.0000000 )
                  (  0.0000000  0.0000000  1.0000000 )


      isym =  9     inv. 180 deg rotation - cryst. axis [1,-1,0] 

 cryst.   s( 9) = (     0          1          0      )    f =(  0.0000000 )
                  (     1          0          0      )       (  0.0000000 )
                  (     0          0          1      )       ( -0.5000000 )

 cart.    s( 9) = ( -0.5000000  0.8660254  0.0000000 )    f =(  0.0000000 )
                  (  0.8660254  0.5000000  0.0000000 )       (  0.0000000 )
                  (  0.0000000  0.0000000  1.0000000 )       ( -2.6000000 )


      isym = 10     inv. 180 deg rotation - cryst. axis [2,1,0]  

 cryst.   s(10) = (    -1         -1          0      )    f =(  0.0000000 )
                  (     0          1          0      )       (  0.0000000 )
                  (     0          0          1      )       ( -0.5000000 )

 cart.    s(10) = ( -0.5000000 -0.8660254  0.0000000 )    f =(  0.0000000 )
                  ( -0.8660254  0.5000000  0.0000000 )       (  0.0000000 )
                  (  0.0000000  0.0000000  1.0000000 )       ( -2.6000000 )


      isym = 11     inv. 180 deg rotation - cryst. axis [0,1,0]  

 cryst.   s(11) = (     1          1          0      )
                  (     0         -1          0      )
                  (     0          0          1      )

 cart.    s(11) = (  0.5000000  0.8660254  0.0000000 )
                  (  0.8660254 -0.5000000  0.0000000 )
                  (  0.0000000  0.0000000  1.0000000 )


      isym = 12     inv. 180 deg rotation - cryst. axis [1,1,0]  

 cryst.   s(12) = (     0         -1          0      )
                  (    -1          0          0      )
                  (     0          0          1      )

 cart.    s(12) = (  0.5000000 -0.8660254  0.0000000 )
                  ( -0.8660254 -0.5000000  0.0000000 )
                  (  0.0000000  0.0000000  1.0000000 )


     point group C_6v (6mm) 
     there are  6 classes
     the character table:

       E     2C6   2C3   C2    3s_v  3s_d 
A_1    1.00  1.00  1.00  1.00  1.00  1.00
A_2    1.00  1.00  1.00  1.00 -1.00 -1.00
B_1    1.00 -1.00  1.00 -1.00  1.00 -1.00
B_2    1.00 -1.00  1.00 -1.00 -1.00  1.00
E_1    2.00  1.00 -1.00 -2.00  0.00  0.00
E_2    2.00 -1.00 -1.00  2.00  0.00  0.00

     the symmetry operations in each class:
     E        1
     C2       2
     2C6      3    4
     2C3      5    6
     3s_v     7    9   10
     3s_d     8   12   11

   Cartesian axes

     site n.     atom                  positions (alat units)
         1           Zn  tau(   1) = (   1.6250000   0.9381942   0.0000000  )
         2           Zn  tau(   2) = (   0.0000000   1.8763884   2.6000000  )
         3           O   tau(   3) = (   1.6250000   0.9381942   3.2136000  )
         4           O   tau(   4) = (   0.0000000   1.8763884   0.6136000  )

   Crystallographic axes

     site n.     atom                  positions (cryst. coord.)
         1           Zn  tau(   1) = (  0.6666667  0.3333333  0.0000000  )
         2           Zn  tau(   2) = (  0.3333333  0.6666667  0.5000000  )
         3           O   tau(   3) = (  0.6666667  0.3333333  0.6180000  )
         4           O   tau(   4) = (  0.3333333  0.6666667  0.1180000  )

     number of k points=    72
                       cart. coord. in units 2pi/alat
        k(    1) = (   0.0000000   0.0000000   0.0000000), wk =   0.0277778
        k(    2) = (   0.0030769   0.0017765   0.0000000), wk =   0.0277778
        k(    3) = (   0.0061538   0.0035529   0.0000000), wk =   0.0277778
        k(    4) = (   0.0092308   0.0053294   0.0000000), wk =   0.0277778
        k(    5) = (   0.0123077   0.0071058   0.0000000), wk =   0.0277778
        k(    6) = (   0.0153846   0.0088823   0.0000000), wk =   0.0277778
        k(    7) = (   0.0184615   0.0106588   0.0000000), wk =   0.0277778
        k(    8) = (   0.0215385   0.0124352   0.0000000), wk =   0.0277778
        k(    9) = (   0.0246154   0.0142117   0.0000000), wk =   0.0277778
        k(   10) = (   0.0276923   0.0159882   0.0000000), wk =   0.0277778
        k(   11) = (   0.0307692   0.0177646   0.0000000), wk =   0.0277778
        k(   12) = (   0.0338462   0.0195411   0.0000000), wk =   0.0277778
        k(   13) = (   0.0369231   0.0213175   0.0000000), wk =   0.0277778
        k(   14) = (   0.0400000   0.0230940   0.0000000), wk =   0.0277778
        k(   15) = (   0.0430769   0.0248705   0.0000000), wk =   0.0277778
        k(   16) = (   0.0461538   0.0266469   0.0000000), wk =   0.0277778
        k(   17) = (   0.0492308   0.0284234   0.0000000), wk =   0.0277778
        k(   18) = (   0.0523077   0.0301999   0.0000000), wk =   0.0277778
        k(   19) = (   0.0553846   0.0319763   0.0000000), wk =   0.0277778
        k(   20) = (   0.0584615   0.0337528   0.0000000), wk =   0.0277778
        k(   21) = (   0.0615385   0.0355292   0.0000000), wk =   0.0277778
        k(   22) = (   0.0646154   0.0373057   0.0000000), wk =   0.0277778
        k(   23) = (   0.0676923   0.0390822   0.0000000), wk =   0.0277778
        k(   24) = (   0.0707692   0.0408586   0.0000000), wk =   0.0277778
        k(   25) = (   0.0738462   0.0426351   0.0000000), wk =   0.0277778
        k(   26) = (   0.0769231   0.0444116   0.0000000), wk =   0.0277778
        k(   27) = (   0.0800000   0.0461880   0.0000000), wk =   0.0277778
        k(   28) = (   0.0830769   0.0479645   0.0000000), wk =   0.0277778
        k(   29) = (   0.0861538   0.0497409   0.0000000), wk =   0.0277778
        k(   30) = (   0.0892308   0.0515174   0.0000000), wk =   0.0277778
        k(   31) = (   0.0923077   0.0532939   0.0000000), wk =   0.0277778
        k(   32) = (   0.0953846   0.0550703   0.0000000), wk =   0.0277778
        k(   33) = (   0.0984615   0.0568468   0.0000000), wk =   0.0277778
        k(   34) = (   0.1015385   0.0586233   0.0000000), wk =   0.0277778
        k(   35) = (   0.1046154   0.0603997   0.0000000), wk =   0.0277778
        k(   36) = (   0.1076923   0.0621762   0.0000000), wk =   0.0277778
        k(   37) = (   0.1107692   0.0639526   0.0000000), wk =   0.0277778
        k(   38) = (   0.1138462   0.0657291   0.0000000), wk =   0.0277778
        k(   39) = (   0.1169231   0.0675056   0.0000000), wk =   0.0277778
        k(   40) = (   0.1200000   0.0692820   0.0000000), wk =   0.0277778
        k(   41) = (   0.1230769   0.0710585   0.0000000), wk =   0.0277778
        k(   42) = (   0.1261538   0.0728350   0.0000000), wk =   0.0277778
        k(   43) = (   0.1292308   0.0746114   0.0000000), wk =   0.0277778
        k(   44) = (   0.1323077   0.0763879   0.0000000), wk =   0.0277778
        k(   45) = (   0.1353846   0.0781643   0.0000000), wk =   0.0277778
        k(   46) = (   0.1384615   0.0799408   0.0000000), wk =   0.0277778
        k(   47) = (   0.1415385   0.0817173   0.0000000), wk =   0.0277778
        k(   48) = (   0.1446154   0.0834937   0.0000000), wk =   0.0277778
        k(   49) = (   0.1476923   0.0852702   0.0000000), wk =   0.0277778
        k(   50) = (   0.1507692   0.0870467   0.0000000), wk =   0.0277778
        k(   51) = (   0.1538462   0.0888231   0.0000000), wk =   0.0277778
        k(   52) = (   0.1520778   0.0918859   0.0000000), wk =   0.0277778
        k(   53) = (   0.1503095   0.0949491   0.0000000), wk =   0.0277778
        k(   54) = (   0.1485412   0.0980119   0.0000000), wk =   0.0277778
        k(   55) = (   0.1467726   0.1010745   0.0000000), wk =   0.0277778
        k(   56) = (   0.1450043   0.1041373   0.0000000), wk =   0.0277778
        k(   57) = (   0.1432360   0.1072004   0.0000000), wk =   0.0277778
        k(   58) = (   0.1414677   0.1102632   0.0000000), wk =   0.0277778
        k(   59) = (   0.1396994   0.1133260   0.0000000), wk =   0.0277778
        k(   60) = (   0.1379311   0.1163888   0.0000000), wk =   0.0277778
        k(   61) = (   0.1361628   0.1194520   0.0000000), wk =   0.0277778
        k(   62) = (   0.1343945   0.1225148   0.0000000), wk =   0.0277778
        k(   63) = (   0.1326258   0.1255774   0.0000000), wk =   0.0277778
        k(   64) = (   0.1308575   0.1286402   0.0000000), wk =   0.0277778
        k(   65) = (   0.1290892   0.1317034   0.0000000), wk =   0.0277778
        k(   66) = (   0.1273209   0.1347662   0.0000000), wk =   0.0277778
        k(   67) = (   0.1255526   0.1378290   0.0000000), wk =   0.0277778
        k(   68) = (   0.1237843   0.1408918   0.0000000), wk =   0.0277778
        k(   69) = (   0.1220160   0.1439549   0.0000000), wk =   0.0277778
        k(   70) = (   0.1202477   0.1470177   0.0000000), wk =   0.0277778
        k(   71) = (   0.1184791   0.1500803   0.0000000), wk =   0.0277778
        k(   72) = (   0.1167108   0.1531431   0.0000000), wk =   0.0277778

                       cryst. coord.
        k(    1) = (   0.0000000   0.0000000   0.0000000), wk =   0.0277778
        k(    2) = (   0.0100000   0.0000000   0.0000000), wk =   0.0277778
        k(    3) = (   0.0200000   0.0000000   0.0000000), wk =   0.0277778
        k(    4) = (   0.0300000   0.0000000   0.0000000), wk =   0.0277778
        k(    5) = (   0.0400000   0.0000000   0.0000000), wk =   0.0277778
        k(    6) = (   0.0500000   0.0000000   0.0000000), wk =   0.0277778
        k(    7) = (   0.0600000   0.0000000   0.0000000), wk =   0.0277778
        k(    8) = (   0.0700000   0.0000000   0.0000000), wk =   0.0277778
        k(    9) = (   0.0800000   0.0000000   0.0000000), wk =   0.0277778
        k(   10) = (   0.0900000   0.0000000   0.0000000), wk =   0.0277778
        k(   11) = (   0.1000000   0.0000000   0.0000000), wk =   0.0277778
        k(   12) = (   0.1100000   0.0000000   0.0000000), wk =   0.0277778
        k(   13) = (   0.1200000   0.0000000   0.0000000), wk =   0.0277778
        k(   14) = (   0.1300000   0.0000000   0.0000000), wk =   0.0277778
        k(   15) = (   0.1400000   0.0000000   0.0000000), wk =   0.0277778
        k(   16) = (   0.1500000   0.0000000   0.0000000), wk =   0.0277778
        k(   17) = (   0.1600000   0.0000000   0.0000000), wk =   0.0277778
        k(   18) = (   0.1700000   0.0000000   0.0000000), wk =   0.0277778
        k(   19) = (   0.1800000   0.0000000   0.0000000), wk =   0.0277778
        k(   20) = (   0.1900000   0.0000000   0.0000000), wk =   0.0277778
        k(   21) = (   0.2000000   0.0000000   0.0000000), wk =   0.0277778
        k(   22) = (   0.2100000   0.0000000   0.0000000), wk =   0.0277778
        k(   23) = (   0.2200000   0.0000000   0.0000000), wk =   0.0277778
        k(   24) = (   0.2300000   0.0000000   0.0000000), wk =   0.0277778
        k(   25) = (   0.2400000   0.0000000   0.0000000), wk =   0.0277778
        k(   26) = (   0.2500000   0.0000000   0.0000000), wk =   0.0277778
        k(   27) = (   0.2600000   0.0000000   0.0000000), wk =   0.0277778
        k(   28) = (   0.2700000   0.0000000   0.0000000), wk =   0.0277778
        k(   29) = (   0.2800000   0.0000000   0.0000000), wk =   0.0277778
        k(   30) = (   0.2900000   0.0000000   0.0000000), wk =   0.0277778
        k(   31) = (   0.3000000   0.0000000   0.0000000), wk =   0.0277778
        k(   32) = (   0.3100000   0.0000000   0.0000000), wk =   0.0277778
        k(   33) = (   0.3200000   0.0000000   0.0000000), wk =   0.0277778
        k(   34) = (   0.3300000   0.0000000   0.0000000), wk =   0.0277778
        k(   35) = (   0.3400000   0.0000000   0.0000000), wk =   0.0277778
        k(   36) = (   0.3500000   0.0000000   0.0000000), wk =   0.0277778
        k(   37) = (   0.3600000   0.0000000   0.0000000), wk =   0.0277778
        k(   38) = (   0.3700000   0.0000000   0.0000000), wk =   0.0277778
        k(   39) = (   0.3800000   0.0000000   0.0000000), wk =   0.0277778
        k(   40) = (   0.3900000   0.0000000   0.0000000), wk =   0.0277778
        k(   41) = (   0.4000000   0.0000000   0.0000000), wk =   0.0277778
        k(   42) = (   0.4100000   0.0000000   0.0000000), wk =   0.0277778
        k(   43) = (   0.4200000   0.0000000   0.0000000), wk =   0.0277778
        k(   44) = (   0.4300000   0.0000000   0.0000000), wk =   0.0277778
        k(   45) = (   0.4400000   0.0000000   0.0000000), wk =   0.0277778
        k(   46) = (   0.4500000   0.0000000   0.0000000), wk =   0.0277778
        k(   47) = (   0.4600000   0.0000000   0.0000000), wk =   0.0277778
        k(   48) = (   0.4700000   0.0000000   0.0000000), wk =   0.0277778
        k(   49) = (   0.4800000   0.0000000   0.0000000), wk =   0.0277778
        k(   50) = (   0.4900000   0.0000000   0.0000000), wk =   0.0277778
        k(   51) = (   0.5000000   0.0000000   0.0000000), wk =   0.0277778
        k(   52) = (   0.4942530   0.0114940   0.0000000), wk =   0.0277778
        k(   53) = (   0.4885060   0.0229890   0.0000000), wk =   0.0277778
        k(   54) = (   0.4827590   0.0344830   0.0000000), wk =   0.0277778
        k(   55) = (   0.4770110   0.0459770   0.0000000), wk =   0.0277778
        k(   56) = (   0.4712640   0.0574710   0.0000000), wk =   0.0277778
        k(   57) = (   0.4655170   0.0689660   0.0000000), wk =   0.0277778
        k(   58) = (   0.4597700   0.0804600   0.0000000), wk =   0.0277778
        k(   59) = (   0.4540230   0.0919540   0.0000000), wk =   0.0277778
        k(   60) = (   0.4482760   0.1034480   0.0000000), wk =   0.0277778
        k(   61) = (   0.4425290   0.1149430   0.0000000), wk =   0.0277778
        k(   62) = (   0.4367820   0.1264370   0.0000000), wk =   0.0277778
        k(   63) = (   0.4310340   0.1379310   0.0000000), wk =   0.0277778
        k(   64) = (   0.4252870   0.1494250   0.0000000), wk =   0.0277778
        k(   65) = (   0.4195400   0.1609200   0.0000000), wk =   0.0277778
        k(   66) = (   0.4137930   0.1724140   0.0000000), wk =   0.0277778
        k(   67) = (   0.4080460   0.1839080   0.0000000), wk =   0.0277778
        k(   68) = (   0.4022990   0.1954020   0.0000000), wk =   0.0277778
        k(   69) = (   0.3965520   0.2068970   0.0000000), wk =   0.0277778
        k(   70) = (   0.3908050   0.2183910   0.0000000), wk =   0.0277778
        k(   71) = (   0.3850570   0.2298850   0.0000000), wk =   0.0277778
        k(   72) = (   0.3793100   0.2413790   0.0000000), wk =   0.0277778

     Dense  grid:   346889 G-vectors     FFT dimensions: (  80,  80, 128)

     Largest allocated arrays     est. size (Mb)     dimensions
        Kohn-Sham Wavefunctions         0.27 Mb     (    691,   26)
        NL pseudopotentials             0.11 Mb     (    691,   10)
        Each V/rho on FFT grid          0.20 Mb     (  12800)
        Each G-vector array             0.04 Mb     (   5421)
        G-vector shells                 0.02 Mb     (   2531)
     Largest temporary arrays     est. size (Mb)     dimensions
        Auxiliary wavefunctions         1.10 Mb     (    691,  104)
        Each subspace H/S matrix        0.01 Mb     (  20,  20)
        Each <psi_i|beta_j> matrix      0.00 Mb     (     10,   26)
     writing wfc files to a dedicated directory

     Check: negative/imaginary core charge=   -0.000103    0.000000

     The potential is recalculated from file :
     ./Zn2O2.save/charge-density.dat

     Starting wfc are   34 randomized atomic wfcs

     total cpu time spent up to now is        2.4 secs

     per-process dynamical memory:     8.7 Mb

     Band Structure Calculation
     Davidson diagonalization with overlap

     Computing kpt #:     1
     total cpu time spent up to now is        4.3 secs

     Computing kpt #:     2
     total cpu time spent up to now is        6.4 secs

     Computing kpt #:     3
     total cpu time spent up to now is        9.6 secs

     Computing kpt #:     4
     total cpu time spent up to now is       12.0 secs

     Computing kpt #:     5
     total cpu time spent up to now is       15.8 secs

     Computing kpt #:     6
     total cpu time spent up to now is       18.1 secs

     Computing kpt #:     7
     total cpu time spent up to now is       20.4 secs

     Computing kpt #:     8
     total cpu time spent up to now is       22.6 secs

     Computing kpt #:     9
     total cpu time spent up to now is       24.8 secs

     Computing kpt #:    10
     total cpu time spent up to now is       27.5 secs

     Computing kpt #:    11
     total cpu time spent up to now is       29.6 secs

     Computing kpt #:    12
     total cpu time spent up to now is       31.6 secs

     Computing kpt #:    13
     total cpu time spent up to now is       33.3 secs

     Computing kpt #:    14
     total cpu time spent up to now is       35.6 secs

     Computing kpt #:    15
     total cpu time spent up to now is       37.8 secs

     Computing kpt #:    16
     total cpu time spent up to now is       41.8 secs

     Computing kpt #:    17
     total cpu time spent up to now is       43.7 secs

     Computing kpt #:    18
     total cpu time spent up to now is       45.8 secs

     Computing kpt #:    19
     total cpu time spent up to now is       76.9 secs

     Computing kpt #:    20
     total cpu time spent up to now is       79.1 secs

     Computing kpt #:    21
     total cpu time spent up to now is       81.5 secs

     Computing kpt #:    22
     total cpu time spent up to now is       83.4 secs

     Computing kpt #:    23
     total cpu time spent up to now is       86.5 secs

     Computing kpt #:    24
     total cpu time spent up to now is       89.1 secs

     Computing kpt #:    25
     total cpu time spent up to now is       94.1 secs

     Computing kpt #:    26
     total cpu time spent up to now is       96.3 secs

     Computing kpt #:    27
     total cpu time spent up to now is       98.0 secs

     Computing kpt #:    28
     total cpu time spent up to now is      100.2 secs

     Computing kpt #:    29
     total cpu time spent up to now is      102.1 secs

     Computing kpt #:    30
     total cpu time spent up to now is      104.0 secs

     Computing kpt #:    31
     total cpu time spent up to now is      105.9 secs

     Computing kpt #:    32
     total cpu time spent up to now is      108.1 secs

     Computing kpt #:    33
     total cpu time spent up to now is      110.9 secs

     Computing kpt #:    34
     total cpu time spent up to now is      112.7 secs

     Computing kpt #:    35
     total cpu time spent up to now is      114.7 secs

     Computing kpt #:    36
     total cpu time spent up to now is      117.9 secs

     Computing kpt #:    37
     total cpu time spent up to now is      119.7 secs

     Computing kpt #:    38
     total cpu time spent up to now is      121.7 secs

     Computing kpt #:    39
     total cpu time spent up to now is      123.6 secs

     Computing kpt #:    40
     total cpu time spent up to now is      125.4 secs

     Computing kpt #:    41
     total cpu time spent up to now is      127.2 secs

     Computing kpt #:    42
     total cpu time spent up to now is      128.9 secs

     Computing kpt #:    43
     total cpu time spent up to now is      131.1 secs

     Computing kpt #:    44
     total cpu time spent up to now is      133.3 secs

     Computing kpt #:    45
     total cpu time spent up to now is      135.4 secs

     Computing kpt #:    46
     total cpu time spent up to now is      137.5 secs

     Computing kpt #:    47
     total cpu time spent up to now is      139.4 secs

     Computing kpt #:    48
     total cpu time spent up to now is      141.5 secs

     Computing kpt #:    49
     total cpu time spent up to now is      143.8 secs

     Computing kpt #:    50
     total cpu time spent up to now is      146.1 secs

     Computing kpt #:    51
     total cpu time spent up to now is      148.4 secs

     Computing kpt #:    52
     total cpu time spent up to now is      150.2 secs

     Computing kpt #:    53
     total cpu time spent up to now is      152.9 secs

     Computing kpt #:    54
     total cpu time spent up to now is      155.0 secs

     Computing kpt #:    55
     total cpu time spent up to now is      156.7 secs

     Computing kpt #:    56
     total cpu time spent up to now is      158.5 secs

     Computing kpt #:    57
     total cpu time spent up to now is      161.7 secs

     Computing kpt #:    58
     total cpu time spent up to now is      163.8 secs

     Computing kpt #:    59
     total cpu time spent up to now is      166.3 secs

     Computing kpt #:    60
     total cpu time spent up to now is      167.9 secs

     Computing kpt #:    61
     total cpu time spent up to now is      170.0 secs

     Computing kpt #:    62
     total cpu time spent up to now is      171.7 secs

     Computing kpt #:    63
     total cpu time spent up to now is      173.6 secs

     Computing kpt #:    64
     total cpu time spent up to now is      176.3 secs

     Computing kpt #:    65
     total cpu time spent up to now is      178.0 secs

     Computing kpt #:    66
     total cpu time spent up to now is      179.7 secs

     Computing kpt #:    67
     total cpu time spent up to now is      182.0 secs

     Computing kpt #:    68
     total cpu time spent up to now is      183.9 secs

     Computing kpt #:    69
     total cpu time spent up to now is      185.9 secs

     Computing kpt #:    70
     total cpu time spent up to now is      189.4 secs

     Computing kpt #:    71
     total cpu time spent up to now is      191.5 secs

     Computing kpt #:    72
     total cpu time spent up to now is      193.6 secs

     ethr =  1.92E-13,  avg # of iterations = 17.3

     total cpu time spent up to now is      193.6 secs

     End of band structure calculation

          k = 0.0000 0.0000 0.0000     band energies (ev):

  -114.1639-114.1637 -68.8297 -68.8264 -68.8171 -68.8171 -68.8165 -68.8165
    -9.2949  -8.5166   2.7034   2.7034   2.7864   2.8381   2.8864   2.8864
     3.8680   3.8680   4.0842   4.0842   4.3847   7.7013   7.7013   8.4071
     8.4966   8.4966

          k = 0.0031 0.0018 0.0000     band energies (ev):

  -114.1639-114.1637 -68.8297 -68.8264 -68.8171 -68.8171 -68.8165 -68.8165
    -9.2943  -8.5163   2.7027   2.7037   2.7868   2.8388   2.8864   2.8869
     3.8678   3.8680   4.0843   4.0847   4.3846   7.6973   7.6998   8.4063
     8.4841   8.4958

          k = 0.0062 0.0036 0.0000     band energies (ev):

  -114.1639-114.1637 -68.8297 -68.8264 -68.8171 -68.8171 -68.8165 -68.8165
    -9.2926  -8.5155   2.7006   2.7048   2.7881   2.8409   2.8863   2.8883
     3.8670   3.8678   4.0844   4.0862   4.3842   7.6856   7.6956   8.4035
     8.4495   8.4936

          k = 0.0092 0.0053 0.0000     band energies (ev):

  -114.1639-114.1637 -68.8297 -68.8264 -68.8171 -68.8171 -68.8165 -68.8165
    -9.2896  -8.5142   2.6972   2.7065   2.7902   2.8443   2.8862   2.8906
     3.8658   3.8676   4.0847   4.0887   4.3835   7.6661   7.6885   8.3890
     8.4082   8.4898

          k = 0.0123 0.0071 0.0000     band energies (ev):

  -114.1639-114.1637 -68.8297 -68.8264 -68.8172 -68.8171 -68.8165 -68.8165
    -9.2855  -8.5123   2.6926   2.7088   2.7930   2.8491   2.8862   2.8938
     3.8642   3.8672   4.0851   4.0922   4.3826   7.6390   7.6786   8.3302
     8.3985   8.4845

          k = 0.0154 0.0089 0.0000     band energies (ev):

  -114.1639-114.1637 -68.8297 -68.8264 -68.8172 -68.8171 -68.8166 -68.8165
    -9.2802  -8.5100   2.6867   2.7119   2.7964   2.8548   2.8866   2.8979
     3.8620   3.8668   4.0856   4.0967   4.3815   7.6044   7.6659   8.2597
     8.3919   8.4778

          k = 0.0185 0.0107 0.0000     band energies (ev):

  -114.1639-114.1637 -68.8297 -68.8264 -68.8172 -68.8171 -68.8166 -68.8165
    -9.2737  -8.5071   2.6797   2.7156   2.8003   2.8611   2.8880   2.9030
     3.8594   3.8664   4.0862   4.1022   4.3801   7.5625   7.6506   8.1848
     8.3843   8.4696

          k = 0.0215 0.0124 0.0000     band energies (ev):

  -114.1639-114.1637 -68.8297 -68.8264 -68.8172 -68.8172 -68.8166 -68.8165
    -9.2662  -8.5038   2.6717   2.7199   2.8045   2.8667   2.8918   2.9089
     3.8564   3.8659   4.0869   4.1088   4.3785   7.5135   7.6326   8.1074
     8.3755   8.4599

          k = 0.0246 0.0142 0.0000     band energies (ev):

  -114.1639-114.1637 -68.8296 -68.8264 -68.8172 -68.8172 -68.8167 -68.8165
    -9.2575  -8.5000   2.6627   2.7248   2.8091   2.8702   2.8992   2.9157
     3.8529   3.8654   4.0877   4.1163   4.3766   7.4578   7.6121   8.0289
     8.3653   8.4488

          k = 0.0277 0.0160 0.0000     band energies (ev):

  -114.1639-114.1637 -68.8296 -68.8264 -68.8173 -68.8172 -68.8167 -68.8165
    -9.2477  -8.4957   2.6528   2.7303   2.8138   2.8720   2.9103   2.9234
     3.8490   3.8649   4.0885   4.1248   4.3745   7.3958   7.5891   7.9502
     8.3539   8.4363

          k = 0.0308 0.0178 0.0000     band energies (ev):

  -114.1639-114.1637 -68.8296 -68.8264 -68.8173 -68.8172 -68.8167 -68.8166
    -9.2369  -8.4910   2.6421   2.7363   2.8184   2.8730   2.9240   2.9319
     3.8447   3.8645   4.0894   4.1343   4.3722   7.3278   7.5638   7.8716
     8.3411   8.4224

          k = 0.0338 0.0195 0.0000     band energies (ev):

  -114.1639-114.1637 -68.8296 -68.8264 -68.8174 -68.8172 -68.8168 -68.8166
    -9.2250  -8.4860   2.6307   2.7429   2.8227   2.8740   2.9399   2.9413
     3.8400   3.8642   4.0904   4.1448   4.3697   7.2545   7.5362   7.7936
     8.3269   8.4072

          k = 0.0369 0.0213 0.0000     band energies (ev):

  -114.1639-114.1637 -68.8296 -68.8264 -68.8174 -68.8172 -68.8168 -68.8166
    -9.2121  -8.4805   2.6186   2.7499   2.8263   2.8757   2.9515   2.9576
     3.8350   3.8640   4.0915   4.1562   4.3670   7.1763   7.5064   7.7162
     8.3113   8.3908

          k = 0.0400 0.0231 0.0000     band energies (ev):

  -114.1639-114.1637 -68.8296 -68.8265 -68.8174 -68.8172 -68.8169 -68.8166
    -9.1983  -8.4747   2.6061   2.7574   2.8289   2.8787   2.9625   2.9769
     3.8297   3.8639   4.0925   4.1686   4.3642   7.0939   7.4747   7.6393
     8.2944   8.3731

          k = 0.0431 0.0249 0.0000     band energies (ev):

  -114.1639-114.1637 -68.8295 -68.8265 -68.8175 -68.8172 -68.8169 -68.8166
    -9.1835  -8.4686   2.5931   2.7653   2.8302   2.8832   2.9743   2.9976
     3.8240   3.8641   4.0936   4.1819   4.3613   7.0079   7.4410   7.5631
     8.2761   8.3542

          k = 0.0462 0.0266 0.0000     band energies (ev):

  -114.1639-114.1637 -68.8295 -68.8265 -68.8175 -68.8173 -68.8170 -68.8166
    -9.1679  -8.4622   2.5799   2.7735   2.8303   2.8893   2.9868   3.0197
     3.8181   3.8644   4.0948   4.1961   4.3584   6.9188   7.4055   7.4873
     8.2564   8.3341

          k = 0.0492 0.0284 0.0000     band energies (ev):

  -114.1639-114.1637 -68.8295 -68.8265 -68.8176 -68.8173 -68.8170 -68.8166
    -9.1514  -8.4555   2.5664   2.7820   2.8292   2.8968   3.0001   3.0431
     3.8119   3.8650   4.0959   4.2109   4.3556   6.8273   7.3684   7.4120
     8.2353   8.3131

          k = 0.0523 0.0302 0.0000     band energies (ev):

  -114.1639-114.1637 -68.8294 -68.8265 -68.8177 -68.8173 -68.8171 -68.8166
    -9.1341  -8.4487   2.5528   2.7908   2.8273   2.9056   3.0141   3.0676
     3.8055   3.8660   4.0971   4.2264   4.3530   6.7338   7.3298   7.3370
     8.2128   8.2910

          k = 0.0554 0.0320 0.0000     band energies (ev):

  -114.1639-114.1637 -68.8294 -68.8265 -68.8177 -68.8173 -68.8172 -68.8166
    -9.1161  -8.4416   2.5393   2.7997   2.8248   2.9153   3.0288   3.0931
     3.7990   3.8672   4.0983   4.2421   4.3511   6.6388   7.2622   7.2897
     8.1889   8.2680

          k = 0.0585 0.0338 0.0000     band energies (ev):

  -114.1639-114.1637 -68.8294 -68.8266 -68.8178 -68.8173 -68.8172 -68.8167
    -9.0974  -8.4344   2.5260   2.8088   2.8219   2.9260   3.0442   3.1195
     3.7923   3.8688   4.0995   4.2576   4.3502   6.5428   7.1878   7.2485
     8.1636   8.2442

          k = 0.0615 0.0355 0.0000     band energies (ev):

  -114.1639-114.1637 -68.8294 -68.8266 -68.8178 -68.8174 -68.8173 -68.8167
    -9.0780  -8.4272   2.5129   2.8180   2.8186   2.9373   3.0601   3.1468
     3.7856   3.8709   4.1007   4.2719   4.3514   6.4462   7.1136   7.2061
     8.1369   8.2196

          k = 0.0646 0.0373 0.0000     band energies (ev):

  -114.1638-114.1637 -68.8293 -68.8266 -68.8179 -68.8174 -68.8174 -68.8167
    -9.0581  -8.4199   2.5001   2.8150   2.8273   2.9494   3.0767   3.1747
     3.7789   3.8733   4.1020   4.2836   4.3559   6.3493   7.0396   7.1628
     8.1089   8.1943

          k = 0.0677 0.0391 0.0000     band energies (ev):

  -114.1638-114.1637 -68.8293 -68.8266 -68.8180 -68.8174 -68.8174 -68.8167
    -9.0376  -8.4125   2.4879   2.8113   2.8365   2.9620   3.0938   3.2030
     3.7723   3.8761   4.1032   4.2913   4.3652   6.2526   6.9659   7.1186
     8.0795   8.1685

          k = 0.0708 0.0409 0.0000     band energies (ev):

  -114.1638-114.1637 -68.8293 -68.8267 -68.8180 -68.8175 -68.8174 -68.8167
    -9.0166  -8.4052   2.4762   2.8074   2.8456   2.9753   3.1114   3.2316
     3.7660   3.8795   4.1045   4.2951   4.3793   6.1563   6.8926   7.0738
     8.0489   8.1422

          k = 0.0738 0.0426 0.0000     band energies (ev):

  -114.1638-114.1637 -68.8292 -68.8267 -68.8181 -68.8176 -68.8174 -68.8167
    -8.9953  -8.3980   2.4652   2.8034   2.8546   2.9890   3.1294   3.2602
     3.7601   3.8833   4.1057   4.2959   4.3971   6.0609   6.8196   7.0285
     8.0169   8.1154

          k = 0.0769 0.0444 0.0000     band energies (ev):

  -114.1638-114.1637 -68.8292 -68.8267 -68.8182 -68.8176 -68.8175 -68.8167
    -8.9736  -8.3909   2.4550   2.7993   2.8635   3.0033   3.1478   3.2885
     3.7547   3.8876   4.1070   4.2951   4.4171   5.9667   6.7470   6.9828
     7.9838   8.0884

          k = 0.0800 0.0462 0.0000     band energies (ev):

  -114.1638-114.1637 -68.8291 -68.8267 -68.8182 -68.8177 -68.8175 -68.8168
    -8.9517  -8.3840   2.4456   2.7952   2.8721   3.0180   3.1666   3.3162
     3.7501   3.8923   4.1082   4.2935   4.4384   5.8741   6.6749   6.9369
     7.9494   8.0613

          k = 0.0831 0.0480 0.0000     band energies (ev):

  -114.1638-114.1637 -68.8291 -68.8268 -68.8183 -68.8178 -68.8175 -68.8168
    -8.9296  -8.3773   2.4372   2.7910   2.8805   3.0331   3.1856   3.3430
     3.7465   3.8976   4.1095   4.2917   4.4603   5.7835   6.6035   6.8909
     7.9140   8.0340

          k = 0.0862 0.0497 0.0000     band energies (ev):

  -114.1638-114.1637 -68.8291 -68.8268 -68.8183 -68.8178 -68.8175 -68.8168
    -8.9073  -8.3708   2.4298   2.7867   2.8886   3.0486   3.2048   3.3682
     3.7444   3.9033   4.1108   4.2900   4.4823   5.6953   6.5327   6.8450
     7.8776   8.0068

          k = 0.0892 0.0515 0.0000     band energies (ev):

  -114.1638-114.1637 -68.8290 -68.8268 -68.8184 -68.8179 -68.8175 -68.8168
    -8.8851  -8.3646   2.4235   2.7825   2.8964   3.0645   3.2241   3.3913
     3.7441   3.9095   4.1121   4.2887   4.5039   5.6100   6.4628   6.7994
     7.8402   7.9797

          k = 0.0923 0.0533 0.0000     band energies (ev):

  -114.1638-114.1637 -68.8290 -68.8268 -68.8185 -68.8180 -68.8176 -68.8168
    -8.8628  -8.3588   2.4183   2.7781   2.9038   3.0807   3.2435   3.4119
     3.7459   3.9161   4.1134   4.2881   4.5244   5.5283   6.3938   6.7542
     7.8020   7.9529

          k = 0.0954 0.0551 0.0000     band energies (ev):

  -114.1638-114.1637 -68.8289 -68.8269 -68.8185 -68.8181 -68.8176 -68.8168
    -8.8406  -8.3533   2.4142   2.7737   2.9108   3.0973   3.2629   3.4293
     3.7502   3.9230   4.1148   4.2885   4.5433   5.4508   6.3259   6.7096
     7.7632   7.9264

          k = 0.0985 0.0568 0.0000     band energies (ev):

  -114.1638-114.1637 -68.8289 -68.8269 -68.8186 -68.8181 -68.8176 -68.8168
    -8.8187  -8.3483   2.4114   2.7693   2.9175   3.1140   3.2821   3.4432
     3.7571   3.9304   4.1161   4.2899   4.5595   5.3783   6.2594   6.6657
     7.7237   7.9004

          k = 0.1015 0.0586 0.0000     band energies (ev):

  -114.1638-114.1637 -68.8289 -68.8269 -68.8186 -68.8182 -68.8176 -68.8169
    -8.7970  -8.3436   2.4098   2.7648   2.9237   3.1310   3.3010   3.4534
     3.7667   3.9380   4.1175   4.2927   4.5723   5.3118   6.1943   6.6228
     7.6839   7.8750

          k = 0.1046 0.0604 0.0000     band energies (ev):

  -114.1638-114.1637 -68.8288 -68.8270 -68.8187 -68.8182 -68.8176 -68.8169
    -8.7756  -8.3395   2.4094   2.7601   2.9295   3.1482   3.3197   3.4599
     3.7786   3.9459   4.1188   4.2971   4.5805   5.2523   6.1311   6.5809
     7.6439   7.8503

          k = 0.1077 0.0622 0.0000     band energies (ev):

  -114.1638-114.1637 -68.8288 -68.8270 -68.8188 -68.8183 -68.8177 -68.8169
    -8.7547  -8.3358   2.4103   2.7554   2.9349   3.1654   3.3379   3.4632
     3.7921   3.9540   4.1202   4.3032   4.5831   5.2007   6.0699   6.5403
     7.6038   7.8264

          k = 0.1108 0.0640 0.0000     band energies (ev):

  -114.1638-114.1637 -68.8287 -68.8270 -68.8188 -68.8184 -68.8177 -68.8169
    -8.7344  -8.3326   2.4123   2.7505   2.9399   3.1827   3.3556   3.4636
     3.8066   3.9622   4.1215   4.3109   4.5795   5.1579   6.0112   6.5012
     7.5640   7.8035

          k = 0.1138 0.0657 0.0000     band energies (ev):

  -114.1638-114.1637 -68.8287 -68.8270 -68.8189 -68.8184 -68.8177 -68.8169
    -8.7146  -8.3299   2.4155   2.7454   2.9445   3.1999   3.3726   3.4617
     3.8214   3.9705   4.1228   4.3202   4.5696   5.1238   5.9553   6.4637
     7.5247   7.7815

          k = 0.1169 0.0675 0.0000     band energies (ev):

  -114.1638-114.1637 -68.8287 -68.8271 -68.8189 -68.8185 -68.8177 -68.8169
    -8.6956  -8.3277   2.4197   2.7402   2.9487   3.2170   3.3889   3.4580
     3.8358   3.9786   4.1241   4.3303   4.5548   5.0977   5.9027   6.4280
     7.4860   7.7607

          k = 0.1200 0.0693 0.0000     band energies (ev):

  -114.1638-114.1637 -68.8286 -68.8271 -68.8189 -68.8185 -68.8177 -68.8169
    -8.6774  -8.3261   2.4250   2.7348   2.9525   3.2339   3.4043   3.4530
     3.8492   3.9867   4.1254   4.3397   4.5380   5.0778   5.8541   6.3942
     7.4484   7.7412

          k = 0.1231 0.0711 0.0000     band energies (ev):

  -114.1638-114.1637 -68.8286 -68.8271 -68.8190 -68.8186 -68.8177 -68.8169
    -8.6601  -8.3249   2.4310   2.7292   2.9559   3.2504   3.4188   3.4471
     3.8614   3.9945   4.1266   4.3457   4.5235   5.0619   5.8099   6.3627
     7.4122   7.7229

          k = 0.1262 0.0728 0.0000     band energies (ev):

  -114.1638-114.1637 -68.8286 -68.8272 -68.8190 -68.8186 -68.8177 -68.8169
    -8.6439  -8.3242   2.4379   2.7234   2.9589   3.2664   3.4322   3.4406
     3.8721   4.0020   4.1278   4.3445   4.5169   5.0477   5.7708   6.3334
     7.3778   7.7062

          k = 0.1292 0.0746 0.0000     band energies (ev):

  -114.1638-114.1637 -68.8285 -68.8272 -68.8191 -68.8186 -68.8178 -68.8170
    -8.6288  -8.3238   2.4452   2.7175   2.9616   3.2818   3.4339   3.4445
     3.8814   4.0091   4.1288   4.3340   4.5218   5.0330   5.7371   6.3067
     7.3454   7.6909

          k = 0.1323 0.0764 0.0000     band energies (ev):

  -114.1637-114.1637 -68.8285 -68.8272 -68.8191 -68.8187 -68.8178 -68.8170
    -8.6150  -8.3238   2.4528   2.7116   2.9639   3.2963   3.4271   3.4556
     3.8892   4.0156   4.1298   4.3159   4.5376   5.0163   5.7091   6.2827
     7.3155   7.6772

          k = 0.1354 0.0782 0.0000     band energies (ev):

  -114.1637-114.1637 -68.8285 -68.8272 -68.8191 -68.8187 -68.8178 -68.8170
    -8.6027  -8.3241   2.4605   2.7058   2.9659   3.3097   3.4207   3.4653
     3.8956   4.0215   4.1307   4.2942   4.5611   4.9967   5.6868   6.2616
     7.2885   7.6652

          k = 0.1385 0.0799 0.0000     band energies (ev):

  -114.1637-114.1637 -68.8285 -68.8272 -68.8191 -68.8187 -68.8178 -68.8170
    -8.5919  -8.3246   2.4680   2.7002   2.9676   3.3218   3.4146   3.4737
     3.9008   4.0267   4.1314   4.2720   4.5895   4.9738   5.6698   6.2434
     7.2648   7.6549

          k = 0.1415 0.0817 0.0000     band energies (ev):

  -114.1637-114.1637 -68.8284 -68.8273 -68.8192 -68.8187 -68.8178 -68.8170
    -8.5828  -8.3252   2.4748   2.6951   2.9689   3.3325   3.4092   3.4806
     3.9049   4.0311   4.1320   4.2517   4.6206   4.9481   5.6574   6.2283
     7.2448   7.6464

          k = 0.1446 0.0835 0.0000     band energies (ev):

  -114.1637-114.1637 -68.8284 -68.8273 -68.8192 -68.8187 -68.8178 -68.8170
    -8.5756  -8.3258   2.4807   2.6907   2.9699   3.3413   3.4045   3.4861
     3.9081   4.0346   4.1325   4.2346   4.6525   4.9206   5.6489   6.2165
     7.2289   7.6397

          k = 0.1477 0.0853 0.0000     band energies (ev):

  -114.1637-114.1637 -68.8284 -68.8273 -68.8192 -68.8188 -68.8178 -68.8170
    -8.5703  -8.3263   2.4853   2.6873   2.9707   3.3481   3.4009   3.4900
     3.9103   4.0372   4.1328   4.2218   4.6827   4.8936   5.6436   6.2080
     7.2172   7.6350

          k = 0.1508 0.0870 0.0000     band energies (ev):

  -114.1637-114.1637 -68.8284 -68.8273 -68.8192 -68.8188 -68.8178 -68.8170
    -8.5671  -8.3267   2.4881   2.6851   2.9711   3.3524   3.3984   3.4923
     3.9116   4.0387   4.1331   4.2139   4.7066   4.8715   5.6406   6.2028
     7.2102   7.6321

          k = 0.1538 0.0888 0.0000     band energies (ev):

  -114.1637-114.1637 -68.8284 -68.8273 -68.8192 -68.8188 -68.8178 -68.8170
    -8.5660  -8.3268   2.4891   2.6843   2.9713   3.3539   3.3976   3.4931
     3.9120   4.0393   4.1331   4.2112   4.7164   4.8623   5.6397   6.2011
     7.2078   7.6311

          k = 0.1521 0.0919 0.0000     band energies (ev):

  -114.1637-114.1637 -68.8284 -68.8273 -68.8192 -68.8188 -68.8178 -68.8170
    -8.5657  -8.3268   2.4898   2.6857   2.9710   3.3529   3.3981   3.4938
     3.9119   4.0386   4.1334   4.2111   4.7166   4.8631   5.6392   6.1987
     7.2066   7.6287

          k = 0.1503 0.0949 0.0000     band energies (ev):

  -114.1637-114.1637 -68.8284 -68.8273 -68.8192 -68.8188 -68.8178 -68.8170
    -8.5648  -8.3268   2.4917   2.6900   2.9702   3.3500   3.3994   3.4957
     3.9114   4.0367   4.1341   4.2107   4.7174   4.8655   5.6375   6.1917
     7.2029   7.6217

          k = 0.1485 0.0980 0.0000     band energies (ev):

  -114.1637-114.1637 -68.8284 -68.8273 -68.8192 -68.8188 -68.8178 -68.8170
    -8.5634  -8.3268   2.4949   2.6971   2.9688   3.3453   3.4017   3.4988
     3.9107   4.0337   4.1353   4.2102   4.7185   4.8693   5.6344   6.1805
     7.1968   7.6101

          k = 0.1468 0.1011 0.0000     band energies (ev):

  -114.1637-114.1637 -68.8284 -68.8273 -68.8192 -68.8188 -68.8178 -68.8170
    -8.5614  -8.3269   2.4994   2.7071   2.9670   3.3391   3.4048   3.5028
     3.9096   4.0295   4.1370   4.2093   4.7201   4.8747   5.6295   6.1657
     7.1882   7.5941

          k = 0.1450 0.1041 0.0000     band energies (ev):

  -114.1637-114.1637 -68.8284 -68.8273 -68.8192 -68.8188 -68.8178 -68.8170
    -8.5588  -8.3270   2.5051   2.7198   2.9648   3.3317   3.4089   3.5075
     3.9083   4.0243   4.1391   4.2081   4.7221   4.8813   5.6221   6.1483
     7.1771   7.5741

          k = 0.1432 0.1072 0.0000     band energies (ev):

  -114.1637-114.1637 -68.8284 -68.8273 -68.8192 -68.8187 -68.8179 -68.8170
    -8.5556  -8.3271   2.5119   2.7353   2.9623   3.3232   3.4137   3.5126
     3.9067   4.0183   4.1417   4.2064   4.7245   4.8893   5.6114   6.1295
     7.1634   7.5504

          k = 0.1415 0.1103 0.0000     band energies (ev):

  -114.1637-114.1637 -68.8284 -68.8273 -68.8191 -68.8187 -68.8179 -68.8171
    -8.5519  -8.3272   2.5198   2.7536   2.9595   3.3139   3.4193   3.5181
     3.9047   4.0116   4.1445   4.2043   4.7271   4.8982   5.5964   6.1107
     7.1471   7.5235

          k = 0.1397 0.1133 0.0000     band energies (ev):

  -114.1637-114.1637 -68.8284 -68.8273 -68.8191 -68.8187 -68.8179 -68.8171
    -8.5477  -8.3275   2.5286   2.7745   2.9566   3.3040   3.4257   3.5239
     3.9026   4.0044   4.1476   4.2015   4.7301   4.9082   5.5761   6.0934
     7.1282   7.4937

          k = 0.1379 0.1164 0.0000     band energies (ev):

  -114.1637-114.1637 -68.8283 -68.8273 -68.8191 -68.8187 -68.8179 -68.8171
    -8.5430  -8.3278   2.5384   2.7981   2.9537   3.2935   3.4329   3.5297
     3.9001   3.9967   4.1509   4.1981   4.7332   4.9188   5.5493   6.0793
     7.1066   7.4616

          k = 0.1362 0.1195 0.0000     band energies (ev):

  -114.1637-114.1637 -68.8283 -68.8274 -68.8191 -68.8187 -68.8179 -68.8172
    -8.5378  -8.3282   2.5489   2.8242   2.9510   3.2826   3.4407   3.5357
     3.8974   3.9887   4.1543   4.1941   4.7365   4.9299   5.5157   6.0694
     7.0825   7.4275

          k = 0.1344 0.1225 0.0000     band energies (ev):

  -114.1637-114.1637 -68.8283 -68.8274 -68.8191 -68.8187 -68.8180 -68.8172
    -8.5322  -8.3288   2.5601   2.8529   2.9484   3.2715   3.4492   3.5417
     3.8944   3.9806   4.1577   4.1893   4.7400   4.9414   5.4750   6.0644
     7.0559   7.3920

          k = 0.1326 0.1256 0.0000     band energies (ev):

  -114.1637-114.1637 -68.8283 -68.8274 -68.8191 -68.8187 -68.8180 -68.8172
    -8.5261  -8.3294   2.5717   2.8839   2.9463   3.2601   3.4585   3.5477
     3.8912   3.9724   4.1608   4.1837   4.7436   4.9529   5.4276   6.0648
     7.0270   7.3554

          k = 0.1309 0.1286 0.0000     band energies (ev):

  -114.1637-114.1637 -68.8283 -68.8274 -68.8191 -68.8187 -68.8180 -68.8173
    -8.5196  -8.3303   2.5836   2.9172   2.9448   3.2485   3.4684   3.5538
     3.8877   3.9644   4.1635   4.1773   4.7474   4.9641   5.3744   6.0702
     6.9962   7.3178

          k = 0.1291 0.1317 0.0000     band energies (ev):

  -114.1637-114.1637 -68.8283 -68.8274 -68.8190 -68.8186 -68.8181 -68.8173
    -8.5128  -8.3313   2.5956   2.9440   2.9527   3.2369   3.4789   3.5601
     3.8840   3.9565   4.1655   4.1700   4.7513   4.9749   5.3164   6.0803
     6.9638   7.2796

          k = 0.1273 0.1348 0.0000     band energies (ev):

  -114.1637-114.1637 -68.8282 -68.8274 -68.8190 -68.8186 -68.8181 -68.8173
    -8.5056  -8.3326   2.6074   2.9442   2.9900   3.2253   3.4902   3.5665
     3.8800   3.9490   4.1619   4.1666   4.7554   4.9850   5.2548   6.0947
     6.9303   7.2407

          k = 0.1256 0.1378 0.0000     band energies (ev):

  -114.1637-114.1637 -68.8282 -68.8275 -68.8190 -68.8186 -68.8181 -68.8174
    -8.4981  -8.3341   2.6189   2.9454   3.0290   3.2139   3.5022   3.5731
     3.8759   3.9420   4.1528   4.1664   4.7598   4.9939   5.1910   6.1129
     6.8963   7.2013

          k = 0.1238 0.1409 0.0000     band energies (ev):

  -114.1637-114.1637 -68.8282 -68.8275 -68.8190 -68.8186 -68.8182 -68.8174
    -8.4903  -8.3359   2.6297   2.9479   3.0693   3.2026   3.5149   3.5801
     3.8715   3.9354   4.1429   4.1644   4.7645   5.0015   5.1260   6.1345
     6.8625   7.1613

          k = 0.1220 0.1440 0.0000     band energies (ev):

  -114.1637-114.1637 -68.8282 -68.8275 -68.8189 -68.8186 -68.8182 -68.8175
    -8.4823  -8.3380   2.6398   2.9517   3.1100   3.1922   3.5284   3.5877
     3.8669   3.9295   4.1320   4.1602   4.7697   5.0075   5.0613   6.1591
     6.8295   7.1206

          k = 0.1202 0.1470 0.0000     band energies (ev):

  -114.1637-114.1637 -68.8281 -68.8275 -68.8189 -68.8185 -68.8182 -68.8175
    -8.4741  -8.3404   2.6488   2.9569   3.1474   3.1860   3.5427   3.5960
     3.8621   3.9243   4.1201   4.1530   4.7754   4.9981   5.0115   6.1864
     6.7979   7.0791

          k = 0.1185 0.1501 0.0000     band energies (ev):

  -114.1637-114.1637 -68.8281 -68.8276 -68.8189 -68.8185 -68.8183 -68.8176
    -8.4657  -8.3432   2.6568   2.9636   3.1591   3.2057   3.5578   3.6054
     3.8571   3.9200   4.1072   4.1423   4.7819   4.9377   5.0132   6.2162
     6.7684   7.0368

          k = 0.1167 0.1531 0.0000     band energies (ev):

  -114.1637-114.1637 -68.8281 -68.8276 -68.8189 -68.8185 -68.8183 -68.8176
    -8.4572  -8.3464   2.6635   2.9717   3.1512   3.2445   3.5738   3.6163
     3.8518   3.9165   4.0934   4.1275   4.7891   4.8816   5.0125   6.2483
     6.7414   6.9936

     Writing output data file Zn2O2.save
 
     init_run     :      1.24s CPU      1.60s WALL (       1 calls)
     electrons    :    134.50s CPU    191.27s WALL (       1 calls)

     Called by init_run:
     wfcinit      :      0.00s CPU      0.00s WALL (       1 calls)
     potinit      :      0.12s CPU      0.41s WALL (       1 calls)

     Called by electrons:
     c_bands      :    134.49s CPU    191.27s WALL (       1 calls)
     v_of_rho     :      0.00s CPU      0.01s WALL (       1 calls)
     v_h          :      0.00s CPU      0.00s WALL (       1 calls)
     v_xc         :      0.00s CPU      0.00s WALL (       1 calls)

     Called by c_bands:
     init_us_2    :      0.00s CPU      0.03s WALL (      72 calls)
     cegterg      :    106.73s CPU    108.04s WALL (      80 calls)

     Called by sum_band:

     Called by *egterg:
     h_psi        :     86.65s CPU     86.90s WALL (    1399 calls)
     g_psi        :      0.15s CPU      0.53s WALL (    1247 calls)
     cdiaghg      :     13.82s CPU     13.61s WALL (    1319 calls)
     cegterg:over :      5.02s CPU      5.15s WALL (    1247 calls)
     cegterg:upda :      5.04s CPU      5.50s WALL (    1247 calls)
     cegterg:last :      2.68s CPU      2.97s WALL (     368 calls)
     cdiaghg:chol :      1.14s CPU      0.55s WALL (    1319 calls)
     cdiaghg:inve :      0.02s CPU      0.13s WALL (    1319 calls)
     cdiaghg:para :      0.72s CPU      0.91s WALL (    2638 calls)

     Called by h_psi:
     h_psi:vloc   :     85.93s CPU     85.68s WALL (    1399 calls)
     h_psi:vnl    :      0.67s CPU      1.03s WALL (    1399 calls)
     add_vuspsi   :      0.04s CPU      0.41s WALL (    1399 calls)

     General routines
     calbec       :      0.63s CPU      0.60s WALL (    1399 calls)
     fft          :      0.02s CPU      0.02s WALL (       4 calls)
     fftw         :     85.47s CPU     83.06s WALL (   59204 calls)
     davcio       :      0.01s CPU      0.10s WALL (      72 calls)
 
     Parallel routines
     fft_scatter  :     75.47s CPU     33.80s WALL (   59208 calls)
 
     PWSCF        :  2m16.78s CPU     3m20.04s WALL

 
   This run was terminated on:  22:57:40  26Jun2013            

=------------------------------------------------------------------------------=
   JOB DONE.
=------------------------------------------------------------------------------=
Application 2755850 resources: utime ~9746s, stime ~88s, Rss ~35696, inblocks ~305494, outblocks ~2936437
