
     Program PWSCF v.7.1 starts on  1Feb2024 at 16: 7:20 

     This program is part of the open-source Quantum ESPRESSO suite
     for quantum simulation of materials; please cite
         "P. Giannozzi et al., J. Phys.:Condens. Matter 21 395502 (2009);
         "P. Giannozzi et al., J. Phys.:Condens. Matter 29 465901 (2017);
         "P. Giannozzi et al., J. Chem. Phys. 152 154105 (2020);
          URL http://www.quantum-espresso.org", 
     in publications or presentations arising from this work. More details at
     http://www.quantum-espresso.org/quote

     Parallel version (MPI & OpenMP), running on      64 processor cores
     Number of MPI processes:                 4
     Threads/MPI process:                    16

     MPI processes distributed on     1 nodes
     500164 MiB available memory on the printing compute node when the environment starts

     Reading input from ./SiC_wfn.inp

     Current dimensions of program PWSCF are:
     Max number of different atomic species (ntypx) = 10
     Max number of k-points (npk) =  40000
     Max angular momentum in pseudopotentials (lmaxx) =  4

     Atomic positions and unit cell read from directory:
     ./SiC.save/

     file Si.pbe-mt_fhi.UPF: wavefunction(s)  4f renormalized
     file C.pbe-mt_fhi.UPF: wavefunction(s)  4f renormalized
     Message from routine setup:
     using ibrav=0 with symmetry is DISCOURAGED, use correct ibrav instead

     R & G space division:  proc/nbgrp/npool/nimage =       4
     Subspace diagonalization in iterative solution of the eigenvalue problem:
     a serial algorithm will be used


     Parallelization info
     --------------------
     sticks:   dense  smooth     PW     G-vecs:    dense   smooth      PW
     Min         186     186     60                 3383     3383     605
     Max         187     187     61                 3388     3388     606
     Sum         745     745    241                13539    13539    2421

     Using Slab Decomposition


     Title: 
     SiC                                                                        


     bravais-lattice index     =            0
     lattice parameter (alat)  =       8.2384  a.u.
     unit-cell volume          =     139.7901 (a.u.)^3
     number of atoms/cell      =            2
     number of atomic types    =            2
     number of electrons       =         8.00
     number of Kohn-Sham states=           85
     kinetic-energy cutoff     =      80.0000  Ry
     charge density cutoff     =     320.0000  Ry
     Exchange-correlation= PBE
                           (   1   4   3   4   0   0   0)

     celldm(1)=   8.238449  celldm(2)=   0.000000  celldm(3)=   0.000000
     celldm(4)=   0.000000  celldm(5)=   0.000000  celldm(6)=   0.000000

     crystal axes: (cart. coord. in units of alat)
               a(1) = (   0.000000   0.500000   0.500000 )  
               a(2) = (   0.500000   0.000000   0.500000 )  
               a(3) = (   0.500000   0.500000   0.000000 )  

     reciprocal axes: (cart. coord. in units 2 pi/alat)
               b(1) = ( -1.000000  1.000000  1.000000 )  
               b(2) = (  1.000000 -1.000000  1.000000 )  
               b(3) = (  1.000000  1.000000 -1.000000 )  


     PseudoPot. # 1 for Si read from file:
     ../pseudo/Si.pbe-mt_fhi.UPF
     MD5 check sum: 259057c2adf9952f9ced37ae3d9e311d
     Pseudo is Norm-conserving, Zval =  4.0
     Generated using FHI98PP, converted with fhi2upf.x v.5.0.2
     Using radial grid of  495 points,  3 beta functions with: 
                l(1) =   0
                l(2) =   1
                l(3) =   3

     PseudoPot. # 2 for C  read from file:
     ../pseudo/C.pbe-mt_fhi.UPF
     MD5 check sum: 058ca341f9d6d5327d9962fd88a91b65
     Pseudo is Norm-conserving, Zval =  4.0
     Generated using FHI98PP, converted with fhi2upf.x v.5.0.2
     Using radial grid of  461 points,  3 beta functions with: 
                l(1) =   0
                l(2) =   1
                l(3) =   3

     atomic species   valence    mass     pseudopotential
        Si             4.00    28.00000     Si( 1.00)
        C              4.00    12.00000     C ( 1.00)

     24 Sym. Ops. (no inversion) found



   Cartesian axes

     site n.     atom                  positions (alat units)
         1           Si  tau(   1) = (   0.0000000   0.0000000   0.0000000  )
         2           C   tau(   2) = (   0.2500000   0.2500000   0.2500000  )

     number of k points=    10
                       cart. coord. in units 2pi/alat
        k(    1) = (   0.1666667   0.1666667   0.1666667), wk =   0.0740741
        k(    2) = (   0.5000000   0.5000000  -0.1666667), wk =   0.2222222
        k(    3) = (   0.8333333   0.8333333  -0.5000000), wk =   0.2222222
        k(    4) = (   0.8333333   0.1666667   0.1666667), wk =   0.2222222
        k(    5) = (   1.1666667   0.5000000  -0.1666667), wk =   0.4444444
        k(    6) = (   1.5000000   0.1666667   0.1666667), wk =   0.2222222
        k(    7) = (   0.5000000   0.5000000   0.5000000), wk =   0.0740741
        k(    8) = (   0.8333333   0.8333333   0.1666667), wk =   0.2222222
        k(    9) = (   1.1666667   0.5000000   0.5000000), wk =   0.2222222
        k(   10) = (   0.8333333   0.8333333   0.8333333), wk =   0.0740741

     Dense  grid:    13539 G-vectors     FFT dimensions: (  36,  36,  36)

     Estimated max dynamical RAM per process >      12.88 MB

     Estimated total dynamical RAM >      51.52 MB

     The potential is recalculated from file :
     ./SiC.save/charge-density

     Starting wfcs are   32 randomized atomic wfcs +   53 random wfcs

     Band Structure Calculation
     Davidson diagonalization with overlap

     ethr =  1.25E-12,  avg # of iterations = 14.4

     total cpu time spent up to now is       14.4 secs

     End of band structure calculation

          k = 0.1667 0.1667 0.1667 (  1711 PWs)   bands (ev):

    -5.3863   7.0984   9.1228   9.1228  15.7853  17.2873  17.2873  17.7645
    22.4668  22.4668  25.0870  28.0087  30.0580  30.0580  35.4092  40.9799
    41.4727  41.4727  47.6163  47.6163  52.0552  52.4273  52.4273  57.2998
    57.3153  62.6650  62.6650  65.3222  65.7091  65.7091  68.7335  68.7335
    70.4610  70.4610  70.4915  72.0028  74.6058  74.6058  74.8872  77.0266
    79.2618  79.2741  79.2741  81.5469  82.5706  82.5706  84.8813  84.8813
    87.2725  87.6102  87.6102  88.4667  90.2600  93.5914  93.5914  95.5636
    95.7230  95.7230 103.8634 107.0915 107.0915 108.4762 110.8789 113.6658
   113.6658 118.9708 118.9708 119.5081 126.0684 126.0684 126.7438 126.7471
   127.8483 127.8483 129.6693 129.6693 129.7679 131.7324 131.7324 132.9720
   135.8691 135.8691 137.2782 138.3460 139.1103

          k = 0.5000 0.5000-0.1667 (  1690 PWs)   bands (ev):

    -2.7824   2.5501   6.2671   8.3044  15.1529  17.1742  17.8638  20.0221
    22.8604  24.8787  27.7393  30.4196  33.4797  34.1748  36.1863  39.7494
    41.8767  42.7869  46.1871  46.2415  49.0204  49.1692  52.3221  52.7283
    54.4559  56.1308  57.5686  61.6235  62.0181  63.9228  64.7996  65.9890
    67.1124  70.0599  70.5252  70.9178  73.5621  75.1301  76.5032  77.6287
    81.6756  82.9675  84.1941  85.1415  86.9250  87.3872  90.6792  91.8016
    91.8828  92.9585  94.6789  95.0268  96.5074  98.3152  99.6743 100.4029
   101.2843 102.5026 103.8400 105.4511 105.6028 109.0988 110.5687 111.5322
   111.7894 111.9793 113.2374 114.6703 115.3739 117.3404 118.2863 119.8770
   120.7927 123.3936 124.0274 124.7220 127.3317 128.6312 129.1524 129.8856
   131.0777 131.7641 132.8838 134.1318 134.3399

          k = 0.8333 0.8333-0.5000 (  1680 PWs)   bands (ev):

    -3.9952   4.7014   7.6638   7.7183  14.3862  17.0017  18.4327  19.1101
    22.0758  25.6055  27.1863  31.2248  31.2556  34.0863  36.0182  36.7718
    40.3281  43.6858  44.5258  46.3204  49.5263  50.2211  52.9048  55.3523
    57.7460  59.1986  61.5779  62.5262  64.2363  64.3213  65.0704  67.0599
    67.2837  68.1204  71.9317  72.1318  74.4060  75.6665  75.9517  77.0817
    77.7142  80.8727  80.9205  82.9040  82.9813  83.9713  85.7203  88.6287
    90.8518  91.6839  92.7682  94.5014  97.7719  98.8124  98.8793 101.2308
   101.7257 102.7899 106.1672 106.6070 107.6415 108.9542 109.9328 110.1504
   110.5396 112.2627 113.3502 115.6077 116.7505 117.6553 119.1146 120.1166
   123.5388 125.7122 126.1447 127.0444 127.6948 128.8291 130.1740 130.4588
   131.2341 133.1226 134.8434 135.1151 137.9413

          k = 0.8333 0.1667 0.1667 (  1687 PWs)   bands (ev):

    -1.5849   2.6289   5.1292   6.6860  12.2155  15.6508  21.5051  21.6579
    23.6179  27.5322  30.7814  31.9586  33.2271  34.5611  37.2137  38.7329
    38.7903  40.6779  43.1554  46.0393  46.2942  47.8343  50.9135  53.9033
    54.0354  55.2113  58.9701  61.3104  63.5076  63.8677  64.2525  65.8570
    68.4858  69.2368  71.2363  72.3391  74.5560  75.3070  78.6067  78.7818
    80.4180  81.0164  83.6194  86.0369  86.3341  89.0314  89.0854  90.2325
    91.5588  92.2136  93.5854  96.5712  98.5486 100.9556 101.1386 101.1483
   102.6868 103.2001 104.5413 105.5566 108.4604 109.7697 111.6941 112.2732
   112.6236 113.1412 114.7443 115.4297 116.0227 118.0516 118.4056 119.6305
   120.0401 121.6504 122.6195 124.6400 125.7676 127.7944 128.1941 128.7003
   129.8312 131.0791 132.8993 133.0837 134.6940

          k = 1.1667 0.5000-0.1667 (  1688 PWs)   bands (ev):

    -1.2619   2.1003   4.7608   6.3483  14.5868  17.3385  19.6835  20.7477
    22.3362  25.9179  30.4238  31.0818  34.0298  36.2392  37.1953  39.0466
    40.4453  42.1268  43.7534  44.9313  48.2205  50.4037  50.8444  51.7957
    52.7982  55.6505  57.9111  58.7770  59.4429  60.2387  64.5403  66.3168
    70.5003  70.8304  71.6380  73.8411  74.7921  77.5209  78.0500  78.8159
    80.8164  81.1810  83.9647  85.3685  86.9696  90.1425  90.4645  91.3905
    93.0133  94.1657  95.4345  96.3277  97.6553  97.8899  98.8443  99.8375
   101.3420 102.0834 103.4467 105.9128 108.0382 108.0803 109.4704 111.5891
   112.2813 114.6677 115.2223 115.9865 116.8981 117.2852 118.7235 120.4885
   121.2930 122.5178 123.3175 124.3970 125.9997 126.6370 127.3596 128.8865
   131.4002 132.1723 132.6441 134.0751 134.2811

          k = 1.5000 0.1667 0.1667 (  1680 PWs)   bands (ev):

    -3.9952   4.7014   7.6638   7.7183  14.3862  17.0017  18.4327  19.1101
    22.0758  25.6055  27.1863  31.2248  31.2556  34.0863  36.0182  36.7718
    40.3281  43.6858  44.5258  46.3204  49.5263  50.2211  52.9048  55.3523
    57.7460  59.1986  61.5779  62.5262  64.2363  64.3213  65.0704  67.0599
    67.2837  68.1204  71.9317  72.1318  74.4060  75.6665  75.9517  77.0817
    77.7142  80.8727  80.9205  82.9040  82.9813  83.9713  85.7203  88.6287
    90.8518  91.6839  92.7682  94.5014  97.7719  98.8124  98.8793 101.2308
   101.7257 102.7899 106.1672 106.6070 107.6415 108.9542 109.9328 110.1504
   110.5396 112.2627 113.3502 115.6077 116.7505 117.6553 119.1146 120.1166
   123.5388 125.7122 126.1447 127.0444 127.6948 128.8291 130.1740 130.4588
   131.2341 133.1226 134.8434 135.1151 137.9413

          k = 0.5000 0.5000 0.5000 (  1694 PWs)   bands (ev):

    -2.3483   0.9399   8.4020   8.4020  14.8660  16.7097  16.7097  19.4957
    25.5101  26.6865  26.6865  29.7443  29.7443  31.6242  40.9839  41.9389
    42.4523  42.4523  45.6363  45.6363  50.8996  50.8996  51.2202  52.9051
    54.5997  54.5997  57.3732  59.8165  62.5632  62.5632  64.2681  64.2681
    64.4594  67.2310  73.8737  74.3007  74.3007  76.2285  76.2985  76.2985
    77.9579  85.2318  86.4073  86.4073  88.9518  88.9518  90.9814  90.9814
    91.8059  93.5998  93.5998  93.7711  98.5375  98.7509  98.7509 100.7565
   100.7565 104.4147 105.3812 105.3812 106.4082 106.4082 110.0732 110.4033
   111.5802 113.1118 113.6918 113.6918 114.1762 114.1762 115.4461 118.2366
   122.1730 122.1730 124.0904 124.0904 126.7963 126.9463 126.9463 128.0338
   129.5800 129.5800 136.2527 136.3513 136.3513

          k = 0.8333 0.8333 0.1667 (  1687 PWs)   bands (ev):

    -1.5849   2.6289   5.1292   6.6860  12.2155  15.6508  21.5051  21.6579
    23.6179  27.5322  30.7814  31.9586  33.2271  34.5611  37.2137  38.7329
    38.7903  40.6779  43.1554  46.0393  46.2942  47.8343  50.9135  53.9033
    54.0354  55.2113  58.9701  61.3104  63.5076  63.8677  64.2525  65.8570
    68.4858  69.2368  71.2363  72.3391  74.5560  75.3070  78.6067  78.7818
    80.4180  81.0164  83.6194  86.0369  86.3341  89.0314  89.0854  90.2325
    91.5588  92.2136  93.5854  96.5712  98.5486 100.9556 101.1386 101.1483
   102.6868 103.2001 104.5413 105.5566 108.4604 109.7697 111.6941 112.2732
   112.6236 113.1412 114.7443 115.4297 116.0227 118.0516 118.4056 119.6305
   120.0401 121.6504 122.6195 124.6400 125.7676 127.7944 128.1941 128.7003
   129.8312 131.0791 132.8993 133.0837 134.6940

          k = 1.1667 0.5000 0.5000 (  1690 PWs)   bands (ev):

    -2.7824   2.5501   6.2671   8.3044  15.1529  17.1742  17.8638  20.0221
    22.8604  24.8787  27.7393  30.4196  33.4797  34.1748  36.1863  39.7494
    41.8767  42.7869  46.1871  46.2415  49.0204  49.1692  52.3221  52.7283
    54.4559  56.1308  57.5686  61.6235  62.0181  63.9228  64.7996  65.9890
    67.1124  70.0599  70.5252  70.9178  73.5621  75.1301  76.5032  77.6287
    81.6756  82.9675  84.1941  85.1415  86.9250  87.3872  90.6792  91.8016
    91.8828  92.9585  94.6789  95.0268  96.5074  98.3152  99.6743 100.4029
   101.2843 102.5026 103.8400 105.4511 105.6028 109.0988 110.5687 111.5322
   111.7894 111.9793 113.2374 114.6703 115.3739 117.3404 118.2863 119.8770
   120.7927 123.3936 124.0274 124.7220 127.3317 128.6312 129.1524 129.8856
   131.0777 131.7641 132.8838 134.1318 134.3399

          k = 0.8333 0.8333 0.8333 (  1711 PWs)   bands (ev):

    -5.3863   7.0984   9.1228   9.1228  15.7853  17.2873  17.2873  17.7645
    22.4668  22.4668  25.0870  28.0087  30.0580  30.0580  35.4092  40.9799
    41.4727  41.4727  47.6163  47.6163  52.0552  52.4273  52.4273  57.2998
    57.3153  62.6650  62.6650  65.3222  65.7091  65.7091  68.7335  68.7335
    70.4610  70.4610  70.4915  72.0028  74.6058  74.6058  74.8872  77.0266
    79.2618  79.2741  79.2741  81.5469  82.5706  82.5706  84.8813  84.8813
    87.2725  87.6102  87.6102  88.4667  90.2600  93.5914  93.5914  95.5636
    95.7230  95.7230 103.8634 107.0915 107.0915 108.4762 110.8789 113.6658
   113.6658 118.9708 118.9708 119.5081 126.0684 126.0684 126.7438 126.7471
   127.8483 127.8483 129.6693 129.6693 129.7679 131.7324 131.7324 132.9720
   135.8691 135.8691 137.2782 138.3460 139.1103

     Writing all to output data dir ./SiC.save/

     init_run     :      0.64s CPU      0.28s WALL (       1 calls)
     electrons    :     95.05s CPU     13.96s WALL (       1 calls)

     Called by init_run:
     wfcinit      :      0.08s CPU      0.00s WALL (       1 calls)
     potinit      :      0.10s CPU      0.01s WALL (       1 calls)
     hinit0       :      0.45s CPU      0.26s WALL (       1 calls)

     Called by electrons:
     c_bands      :     95.05s CPU     13.96s WALL (       1 calls)
     v_of_rho     :      0.09s CPU      0.01s WALL (       1 calls)

     Called by c_bands:
     init_us_2    :      0.00s CPU      0.00s WALL (      10 calls)
     init_us_2:cp :      0.00s CPU      0.00s WALL (      10 calls)
     cegterg      :     87.87s CPU     13.40s WALL (      10 calls)

     Called by *egterg:
     cdiaghg      :     11.39s CPU      6.73s WALL (     154 calls)
     h_psi        :     58.78s CPU      3.54s WALL (     164 calls)
     g_psi        :      0.01s CPU      0.00s WALL (     144 calls)

     Called by h_psi:
     h_psi:calbec :      1.86s CPU      0.13s WALL (     164 calls)
     vloc_psi     :     55.34s CPU      3.29s WALL (     164 calls)
     add_vuspsi   :      1.51s CPU      0.11s WALL (     164 calls)

     General routines
     calbec       :      1.86s CPU      0.13s WALL (     164 calls)
     fft          :      0.39s CPU      0.24s WALL (      10 calls)
     fftw         :     52.84s CPU      3.08s WALL (   17170 calls)
     davcio       :      0.09s CPU      0.03s WALL (      20 calls)

     Parallel routines

     PWSCF        :   1m36.82s CPU     14.84s WALL


   This run was terminated on:  16: 7:35   1Feb2024            

=------------------------------------------------------------------------------=
   JOB DONE.
=------------------------------------------------------------------------------=
