
.Version 7.11.6 of ABINIT 
.(MPI version, prepared for a x86_64_linux_intel14.0 computer) 

.Copyright (C) 1998-2015 ABINIT group . 
 ABINIT comes with ABSOLUTELY NO WARRANTY.
 It is free software, and you are welcome to redistribute it
 under certain conditions (GNU General Public License,
 see ~abinit/COPYING or http://www.gnu.org/copyleft/gpl.txt).

 ABINIT is a project of the Universite Catholique de Louvain,
 Corning Inc. and other collaborators, see ~abinit/doc/developers/contributors.txt .
 Please read ~abinit/doc/users/acknowledgments.html for suggested
 acknowledgments of the ABINIT effort.
 For more information, see http://www.abinit.org .

.Starting date : Thu 28 Apr 2016.
- ( at 16h39 )
  
- input  file    -> in
- output file    -> out
- root for input  files -> i
- root for output files -> o
 
 
 Symmetries : space group Fd -3 m (#227); Bravais cF (face-center cubic)
================================================================================
 Values of the parameters that define the memory need of the present run
   intxc =         0  ionmov =         0    iscf =        -3 xclevel =         1
  lmnmax =         4   lnmax =         4   mband =        36  mffmem =         1
P  mgfft =        30   mkmem =        19 mpssoang=         4     mpw =      1179
  mqgrid =      3001   natom =         2    nfft =     27000    nkpt =        19
  nloalg =         4  nspden =         1 nspinor =         1  nsppol =         1
    nsym =        48  n1xccc =         0  ntypat =         1  occopt =         1
================================================================================
P This job should need less than                      17.591 Mbytes of memory.
  Rough estimation (10% accuracy) of disk space for files :
_ WF disk file :     12.307 Mbytes ; DEN or POT disk file :      0.208 Mbytes.
================================================================================
 
--------------------------------------------------------------------------------
------------- Echo of variables that govern the present computation ------------
--------------------------------------------------------------------------------
-
- outvars: echo of selected default values                                      
-   accesswff0 =  0 , fftalg0 =312 , wfoptalg0 =  0
-
- outvars: echo of global parameters not present in the input file              
-  max_nthreads =    0
-
 -outvars: echo values of preprocessed input variables --------
            acell      1.0261200000E+01  1.0261200000E+01  1.0261200000E+01 Bohr
              amu      2.80855000E+01
      chksymbreak           0
             ecut      2.00000000E+01 Hartree
-          fftalg         312
           irdden           1
             iscf          -3
           istwfk        0    0    0    0    0    0    0    0    0    0
                         0    0    0    0    0    0    0    0    1
              ixc           7
              kpt      1.00000000E-01  1.00000000E-01  1.00000000E-01
                       1.00000000E-01  1.00000000E-01  3.00000000E-01
                       1.00000000E-01  1.00000000E-01  5.00000000E-01
                       1.00000000E-01  1.00000000E-01  7.00000000E-01
                       1.00000000E-01  1.00000000E-01  9.00000000E-01
                       1.00000000E-01  3.00000000E-01  3.00000000E-01
                       1.00000000E-01  3.00000000E-01  5.00000000E-01
                       1.00000000E-01  3.00000000E-01  7.00000000E-01
                       1.00000000E-01  3.00000000E-01  9.00000000E-01
                       1.00000000E-01  5.00000000E-01  5.00000000E-01
                       1.00000000E-01  5.00000000E-01  7.00000000E-01
                       1.00000000E-01  5.00000000E-01  9.00000000E-01
                       1.00000000E-01  7.00000000E-01  7.00000000E-01
                       3.00000000E-01  3.00000000E-01  3.00000000E-01
                       3.00000000E-01  3.00000000E-01  5.00000000E-01
                       3.00000000E-01  3.00000000E-01  7.00000000E-01
                       3.00000000E-01  5.00000000E-01  5.00000000E-01
                       3.00000000E-01  5.00000000E-01  7.00000000E-01
                       5.00000000E-01  5.00000000E-01  5.00000000E-01
           kptopt           0
P           mkmem          19
            natom           2
            nband          36
           nbdbuf           4
            ngfft          30      30      30
             nkpt          19
             nsym          48
           ntypat           1
              occ      2.000000  2.000000  2.000000  2.000000  0.000000  0.000000
                       0.000000  0.000000  0.000000  0.000000  0.000000  0.000000
                       0.000000  0.000000  0.000000  0.000000  0.000000  0.000000
                       0.000000  0.000000  0.000000  0.000000  0.000000  0.000000
                       0.000000  0.000000  0.000000  0.000000  0.000000  0.000000
                       0.000000  0.000000  0.000000  0.000000  0.000000  0.000000
           prtden           0
            rprim      0.0000000000E+00  5.0000000000E-01  5.0000000000E-01
                       5.0000000000E-01  0.0000000000E+00  5.0000000000E-01
                       5.0000000000E-01  5.0000000000E-01  0.0000000000E+00
          spgroup         227
           symrel      1  0  0   0  1  0   0  0  1      -1  0  0   0 -1  0   0  0 -1
                       0 -1  1   0 -1  0   1 -1  0       0  1 -1   0  1  0  -1  1  0
                      -1  0  0  -1  0  1  -1  1  0       1  0  0   1  0 -1   1 -1  0
                       0  1 -1   1  0 -1   0  0 -1       0 -1  1  -1  0  1   0  0  1
                      -1  0  0  -1  1  0  -1  0  1       1  0  0   1 -1  0   1  0 -1
                       0 -1  1   1 -1  0   0 -1  0       0  1 -1  -1  1  0   0  1  0
                       1  0  0   0  0  1   0  1  0      -1  0  0   0  0 -1   0 -1  0
                       0  1 -1   0  0 -1   1  0 -1       0 -1  1   0  0  1  -1  0  1
                      -1  0  1  -1  1  0  -1  0  0       1  0 -1   1 -1  0   1  0  0
                       0 -1  0   1 -1  0   0 -1  1       0  1  0  -1  1  0   0  1 -1
                       1  0 -1   0  0 -1   0  1 -1      -1  0  1   0  0  1   0 -1  1
                       0  1  0   0  0  1   1  0  0       0 -1  0   0  0 -1  -1  0  0
                       1  0 -1   0  1 -1   0  0 -1      -1  0  1   0 -1  1   0  0  1
                       0 -1  0   0 -1  1   1 -1  0       0  1  0   0  1 -1  -1  1  0
                      -1  0  1  -1  0  0  -1  1  0       1  0 -1   1  0  0   1 -1  0
                       0  1  0   1  0  0   0  0  1       0 -1  0  -1  0  0   0  0 -1
                       0  0 -1   0  1 -1   1  0 -1       0  0  1   0 -1  1  -1  0  1
                       1 -1  0   0 -1  1   0 -1  0      -1  1  0   0  1 -1   0  1  0
                       0  0  1   1  0  0   0  1  0       0  0 -1  -1  0  0   0 -1  0
                      -1  1  0  -1  0  0  -1  0  1       1 -1  0   1  0  0   1  0 -1
                       0  0  1   0  1  0   1  0  0       0  0 -1   0 -1  0  -1  0  0
                       1 -1  0   0 -1  0   0 -1  1      -1  1  0   0  1  0   0  1 -1
                       0  0 -1   1  0 -1   0  1 -1       0  0  1  -1  0  1   0 -1  1
                      -1  1  0  -1  0  1  -1  0  0       1 -1  0   1  0 -1   1  0  0
            tnons      0.0000000  0.0000000  0.0000000     0.0000000  0.0000000  0.0000000
                       0.0000000  0.5000000  0.0000000     0.0000000  0.5000000  0.0000000
                       0.5000000  0.0000000  0.0000000     0.5000000  0.0000000  0.0000000
                       0.0000000  0.0000000  0.5000000     0.0000000  0.0000000  0.5000000
                       0.5000000  0.0000000  0.0000000     0.5000000  0.0000000  0.0000000
                       0.0000000  0.5000000  0.0000000     0.0000000  0.5000000  0.0000000
                       0.0000000  0.0000000  0.0000000     0.0000000  0.0000000  0.0000000
                       0.0000000  0.0000000  0.5000000     0.0000000  0.0000000  0.5000000
                       0.5000000  0.0000000  0.0000000     0.5000000  0.0000000  0.0000000
                       0.0000000  0.5000000  0.0000000     0.0000000  0.5000000  0.0000000
                       0.0000000  0.0000000  0.5000000     0.0000000  0.0000000  0.5000000
                       0.0000000  0.0000000  0.0000000     0.0000000  0.0000000  0.0000000
                       0.0000000  0.0000000  0.5000000     0.0000000  0.0000000  0.5000000
                       0.0000000  0.5000000  0.0000000     0.0000000  0.5000000  0.0000000
                       0.5000000  0.0000000  0.0000000     0.5000000  0.0000000  0.0000000
                       0.0000000  0.0000000  0.0000000     0.0000000  0.0000000  0.0000000
                       0.0000000  0.0000000  0.5000000     0.0000000  0.0000000  0.5000000
                       0.0000000  0.5000000  0.0000000     0.0000000  0.5000000  0.0000000
                       0.0000000  0.0000000  0.0000000     0.0000000  0.0000000  0.0000000
                       0.5000000  0.0000000  0.0000000     0.5000000  0.0000000  0.0000000
                       0.0000000  0.0000000  0.0000000     0.0000000  0.0000000  0.0000000
                       0.0000000  0.5000000  0.0000000     0.0000000  0.5000000  0.0000000
                       0.0000000  0.0000000  0.5000000     0.0000000  0.0000000  0.5000000
                       0.5000000  0.0000000  0.0000000     0.5000000  0.0000000  0.0000000
           tolwfr      1.00000000E-13
            typat      1  1
              wtk        0.01600    0.04800    0.04800    0.04800    0.04800    0.04800
                         0.09600    0.09600    0.09600    0.04800    0.09600    0.04800
                         0.04800    0.01600    0.04800    0.04800    0.04800    0.04800
                         0.00800
           xangst     -6.7874914660E-01 -6.7874914660E-01 -6.7874914660E-01
                       6.7874914660E-01  6.7874914660E-01  6.7874914660E-01
            xcart     -1.2826500000E+00 -1.2826500000E+00 -1.2826500000E+00
                       1.2826500000E+00  1.2826500000E+00  1.2826500000E+00
             xred     -1.2500000000E-01 -1.2500000000E-01 -1.2500000000E-01
                       1.2500000000E-01  1.2500000000E-01  1.2500000000E-01
            znucl       14.00000
 
================================================================================
 
 chkinp: Checking input parameters for consistency.
 
================================================================================
== DATASET  1 ==================================================================
-   nproc =    1
 
 Exchange-correlation functional for the present dataset will be:
  LDA: Perdew-Wang 92 LSD fit to Ceperley-Alder data - ixc=7
 Citation for XC functional:
  J.P.Perdew and Y.Wang, PRB 45, 13244 (1992)
 
 Real(R)+Recip(G) space primitive vectors, cartesian coordinates (Bohr,Bohr^-1):
 R(1)=  0.0000000  5.1306000  5.1306000  G(1)= -0.0974545  0.0974545  0.0974545
 R(2)=  5.1306000  0.0000000  5.1306000  G(2)=  0.0974545 -0.0974545  0.0974545
 R(3)=  5.1306000  5.1306000  0.0000000  G(3)=  0.0974545  0.0974545 -0.0974545
 Unit cell volume ucvol=  2.7010615E+02 bohr^3
 Angles (23,13,12)=  6.00000000E+01  6.00000000E+01  6.00000000E+01 degrees
 
 getcut: wavevector=  0.0000  0.0000  0.0000  ngfft=  30  30  30
         ecut(hartree)=     20.000   => boxcut(ratio)=   2.05608
 
--- Pseudopotential description ------------------------------------------------
- pspini: atom type   1  psp file is 14-Si.LDA.fhi
- pspatm: opening atomic psp file    14-Si.LDA.fhi
- silicon, fhi98PP : Trouiller-Martins-type, LDA Ceperley/Alder Perdew/Wang (1992), l= 2 local
- 14.00000   4.00000     21003                znucl, zion, pspdat
    6    7    3    2       495   0.00000      pspcod,pspxc,lmax,lloc,mmax,r2well
    0.00000000000000    0.00000000000000    0.00000000000000   rchrg,fchrg,qchrg
  1.024700          amesh (Hamman grid)
 pspatm: epsatm=   -1.09879859
         --- l  ekb(1:nproj) -->
             0    3.561079
             1    1.887246
             3   -1.290084
 pspatm: atomic psp has been read  and splines computed
 
--------------------------------------------------------------------------------
 
P newkpt: treating     36 bands with npw=    1179 for ikpt=   1 by node    0
P newkpt: treating     36 bands with npw=    1156 for ikpt=   2 by node    0
P newkpt: treating     36 bands with npw=    1157 for ikpt=   3 by node    0
P newkpt: treating     36 bands with npw=    1150 for ikpt=   4 by node    0
P newkpt: treating     36 bands with npw=    1164 for ikpt=   5 by node    0
P newkpt: treating     36 bands with npw=    1154 for ikpt=   6 by node    0
P newkpt: treating     36 bands with npw=    1158 for ikpt=   7 by node    0
P newkpt: treating     36 bands with npw=    1152 for ikpt=   8 by node    0
P newkpt: treating     36 bands with npw=    1150 for ikpt=   9 by node    0
P newkpt: treating     36 bands with npw=    1148 for ikpt=  10 by node    0
P newkpt: treating     36 bands with npw=    1153 for ikpt=  11 by node    0
P newkpt: treating     36 bands with npw=    1156 for ikpt=  12 by node    0
P newkpt: treating     36 bands with npw=    1149 for ikpt=  13 by node    0
P newkpt: treating     36 bands with npw=    1161 for ikpt=  14 by node    0
P newkpt: treating     36 bands with npw=    1150 for ikpt=  15 by node    0
P newkpt: treating     36 bands with npw=    1150 for ikpt=  16 by node    0
P newkpt: treating     36 bands with npw=    1158 for ikpt=  17 by node    0
P newkpt: treating     36 bands with npw=    1162 for ikpt=  18 by node    0
P newkpt: treating     36 bands with npw=    1158 for ikpt=  19 by node    0
 
 
================================================================================
 
     iter   Etot(hartree)      deltaE(h)  residm     vres2
 prteigrs : about to open file o_EIG
 Non-SCF case, kpt    1 (  0.10000  0.10000  0.10000), residuals and eigenvalues=
  2.09E-14  1.12E-14  5.01E-14  1.15E-14  8.28E-15  4.33E-14  3.57E-14  3.33E-14
  1.04E-14  2.32E-14  5.36E-14  5.10E-14  2.94E-14  2.40E-14  1.39E-14  3.82E-14
  4.16E-14  4.24E-14  2.65E-14  3.94E-14  4.44E-14  7.61E-14  1.44E-14  5.63E-14
  2.78E-14  2.01E-14  7.43E-14  5.01E-14  6.18E-14  2.55E-14  7.16E-14  2.42E-14
  2.10E-12  6.97E-11  1.53E-07  1.56E-07
 -2.0577E-01  1.8657E-01  2.2185E-01  2.2185E-01  3.2120E-01  3.3373E-01
  3.3373E-01  3.7914E-01  5.0125E-01  5.0125E-01  5.3005E-01  6.2210E-01
  6.6840E-01  6.6840E-01  8.1354E-01  1.0202E+00  1.0202E+00  1.0203E+00
  1.0991E+00  1.0991E+00  1.1687E+00  1.1687E+00  1.1901E+00  1.3133E+00
  1.3615E+00  1.3615E+00  1.4313E+00  1.4834E+00  1.4834E+00  1.5342E+00
  1.5924E+00  1.5924E+00  1.6620E+00  1.6620E+00  1.7105E+00  1.7437E+00
  prteigrs : nnsclo,ikpt=   30    1 max resid (incl. the buffer)=  1.55575E-07
 Non-SCF case, kpt    2 (  0.10000  0.10000  0.30000), residuals and eigenvalues=
  5.60E-14  9.05E-14  7.37E-14  2.56E-14  1.83E-14  3.84E-14  4.10E-14  3.22E-14
  6.06E-14  5.64E-14  4.25E-14  7.22E-14  7.39E-14  8.78E-15  8.64E-14  1.06E-14
  1.85E-14  2.57E-14  3.82E-14  1.31E-14  2.46E-14  9.31E-14  6.70E-14  5.62E-14
  5.30E-14  8.33E-14  3.34E-14  5.92E-14  5.43E-14  7.16E-14  8.97E-14  8.01E-14
  6.72E-10  1.98E-10  6.47E-07  4.94E-06
 -1.8063E-01  9.4791E-02  1.6392E-01  2.1072E-01  3.2593E-01  3.5267E-01
  3.6398E-01  4.4342E-01  4.6290E-01  5.4275E-01  5.8078E-01  6.4885E-01
  7.1971E-01  7.9347E-01  8.2856E-01  8.9975E-01  9.3827E-01  9.7391E-01
  1.0440E+00  1.0709E+00  1.1846E+00  1.1941E+00  1.2611E+00  1.2961E+00
  1.3497E+00  1.3700E+00  1.4093E+00  1.4358E+00  1.4512E+00  1.4806E+00
  1.5072E+00  1.5553E+00  1.6180E+00  1.6250E+00  1.6551E+00  1.6687E+00
  prteigrs : nnsclo,ikpt=   30    2 max resid (incl. the buffer)=  4.94113E-06
 Non-SCF case, kpt    3 (  0.10000  0.10000  0.50000), residuals and eigenvalues=
  2.83E-15  1.26E-14  5.61E-14  4.34E-14  4.66E-14  3.39E-14  1.81E-14  1.53E-14
  5.25E-14  4.90E-14  3.91E-14  7.34E-14  7.03E-15  6.18E-14  1.01E-14  9.37E-14
  3.77E-14  8.64E-15  6.47E-15  2.77E-14  7.69E-14  7.86E-14  7.51E-14  4.85E-14
  2.79E-14  8.05E-14  1.51E-14  7.81E-14  2.39E-14  5.10E-14  6.17E-14  6.53E-14
  3.49E-11  4.31E-11  8.19E-08  8.86E-06
 -1.2884E-01 -1.2998E-02  1.5154E-01  1.8358E-01  3.0673E-01  3.5443E-01
  3.6423E-01  5.1972E-01  5.4483E-01  5.6593E-01  6.3423E-01  6.7147E-01
  7.2651E-01  7.4192E-01  8.5978E-01  9.2868E-01  9.8788E-01  1.0151E+00
  1.0477E+00  1.0558E+00  1.1400E+00  1.1441E+00  1.2124E+00  1.2212E+00
  1.2410E+00  1.2993E+00  1.3443E+00  1.3502E+00  1.4287E+00  1.4409E+00
  1.4460E+00  1.4647E+00  1.5917E+00  1.5932E+00  1.6433E+00  1.6851E+00
  prteigrs : nnsclo,ikpt=   30    3 max resid (incl. the buffer)=  8.85722E-06
 Non-SCF case, kpt    4 (  0.10000  0.10000  0.70000), residuals and eigenvalues=
  9.41E-14  4.61E-14  5.18E-14  1.73E-14  4.92E-15  1.26E-14  1.37E-14  1.83E-14
  8.15E-15  2.49E-14  3.02E-14  7.57E-15  9.69E-14  7.38E-15  9.92E-15  1.67E-14
  1.34E-14  2.79E-14  1.28E-14  3.86E-14  1.13E-14  1.96E-14  3.36E-14  6.80E-14
  3.35E-14  9.19E-14  1.55E-14  7.89E-14  2.56E-14  2.53E-14  6.85E-14  9.49E-14
  1.49E-11  5.92E-11  2.09E-10  8.29E-07
 -1.4632E-01  1.6035E-02  1.6689E-01  1.7502E-01  3.0796E-01  3.5067E-01
  3.7963E-01  4.6134E-01  5.5289E-01  5.7953E-01  5.9636E-01  7.0231E-01
  7.1374E-01  7.8369E-01  8.4745E-01  8.6935E-01  9.2167E-01  1.0509E+00
  1.0615E+00  1.0901E+00  1.1077E+00  1.1425E+00  1.2236E+00  1.2707E+00
  1.2870E+00  1.3212E+00  1.3429E+00  1.3731E+00  1.4134E+00  1.4407E+00
  1.4830E+00  1.5001E+00  1.5992E+00  1.6107E+00  1.6285E+00  1.6843E+00
  prteigrs : nnsclo,ikpt=   30    4 max resid (incl. the buffer)=  8.29042E-07
 Non-SCF case, kpt    5 (  0.10000  0.10000  0.90000), residuals and eigenvalues=
  4.68E-14  3.81E-15  6.43E-15  6.75E-15  2.32E-14  7.32E-15  7.32E-15  1.51E-14
  1.03E-14  9.97E-14  4.65E-14  6.96E-15  1.55E-14  2.31E-14  5.94E-14  2.24E-14
  9.63E-14  2.21E-14  6.95E-14  5.92E-14  9.23E-14  7.00E-14  9.36E-14  3.15E-14
  7.23E-14  3.23E-14  3.15E-14  3.23E-14  6.20E-14  6.80E-14  3.96E-14  8.19E-14
  7.22E-14  2.38E-09  2.80E-10  1.14E-04
 -1.9301E-01  1.3847E-01  1.9208E-01  1.9805E-01  3.1007E-01  3.5180E-01
  3.7571E-01  4.0858E-01  4.7455E-01  5.2113E-01  5.7115E-01  6.3395E-01
  6.8749E-01  7.2401E-01  8.8385E-01  9.1875E-01  9.3149E-01  1.0245E+00
  1.0391E+00  1.0688E+00  1.1751E+00  1.2022E+00  1.2394E+00  1.3493E+00
  1.3690E+00  1.4087E+00  1.4171E+00  1.4414E+00  1.4543E+00  1.4762E+00
  1.5492E+00  1.5635E+00  1.5886E+00  1.6539E+00  1.6549E+00  1.7106E+00
  prteigrs : nnsclo,ikpt=   30    5 max resid (incl. the buffer)=  1.13931E-04
 Non-SCF case, kpt    6 (  0.10000  0.30000  0.30000), residuals and eigenvalues=
  3.00E-15  1.86E-14  1.06E-14  2.77E-14  8.19E-15  1.72E-14  4.39E-14  1.03E-14
  8.98E-15  2.82E-14  5.02E-14  8.85E-14  3.26E-14  9.41E-14  1.02E-14  9.44E-15
  5.29E-14  3.90E-14  6.90E-14  1.04E-14  4.70E-14  3.33E-14  3.44E-14  2.91E-14
  5.56E-14  3.45E-14  1.64E-14  4.41E-14  3.80E-14  3.52E-14  3.26E-14  5.25E-14
  5.15E-13  6.34E-13  1.47E-07  5.02E-06
 -1.6785E-01  8.6387E-02  1.5568E-01  1.6185E-01  2.8441E-01  3.5337E-01
  4.1637E-01  4.2950E-01  5.3656E-01  5.6011E-01  6.2856E-01  6.8462E-01
  7.1890E-01  7.6804E-01  8.2905E-01  8.4712E-01  9.4379E-01  9.6974E-01
  9.9331E-01  1.0993E+00  1.1665E+00  1.2151E+00  1.2181E+00  1.2930E+00
  1.3064E+00  1.3180E+00  1.3638E+00  1.4569E+00  1.4596E+00  1.5204E+00
  1.5376E+00  1.5409E+00  1.5775E+00  1.5963E+00  1.6719E+00  1.6889E+00
  prteigrs : nnsclo,ikpt=   30    6 max resid (incl. the buffer)=  5.02018E-06
 Non-SCF case, kpt    7 (  0.10000  0.30000  0.50000), residuals and eigenvalues=
  3.81E-15  6.79E-14  7.66E-15  1.09E-14  2.98E-14  1.03E-14  8.34E-15  1.22E-14
  2.69E-14  2.96E-14  1.18E-14  9.24E-14  3.70E-14  9.87E-14  3.08E-14  2.85E-14
  1.67E-14  3.76E-14  5.41E-14  9.94E-14  4.01E-14  7.39E-15  6.88E-14  9.06E-14
  1.64E-14  4.82E-14  8.07E-14  4.47E-14  7.31E-14  1.79E-14  4.84E-14  9.72E-14
  8.66E-14  2.16E-11  1.78E-08  1.05E-05
 -1.2154E-01  1.3016E-02  1.0284E-01  1.4043E-01  3.0626E-01  3.6487E-01
  4.0393E-01  4.8170E-01  5.9314E-01  5.9368E-01  6.8402E-01  6.9683E-01
  7.3577E-01  7.7492E-01  8.5365E-01  8.7792E-01  9.3683E-01  9.6413E-01
  1.0015E+00  1.0433E+00  1.0988E+00  1.1225E+00  1.1985E+00  1.2218E+00
  1.2734E+00  1.2982E+00  1.3509E+00  1.3877E+00  1.4087E+00  1.4250E+00
  1.4815E+00  1.5611E+00  1.5825E+00  1.6284E+00  1.6736E+00  1.7193E+00
  prteigrs : nnsclo,ikpt=   30    7 max resid (incl. the buffer)=  1.04965E-05
 Non-SCF case, kpt    8 (  0.10000  0.30000  0.70000), residuals and eigenvalues=
  8.77E-14  2.89E-14  6.44E-15  9.34E-15  1.24E-14  1.65E-14  6.13E-15  3.31E-14
  2.86E-14  3.27E-14  1.93E-14  3.49E-14  8.57E-15  6.84E-14  5.48E-14  3.15E-14
  1.58E-14  3.73E-14  1.73E-14  1.06E-14  4.25E-14  1.21E-14  3.32E-14  2.92E-14
  2.01E-14  6.44E-14  3.41E-14  2.04E-14  3.11E-14  9.66E-14  3.39E-14  7.55E-14
  5.20E-13  2.16E-11  3.26E-09  1.13E-07
 -1.0499E-01 -9.1684E-03  8.2151E-02  1.4721E-01  3.2549E-01  3.7802E-01
  4.4494E-01  4.7418E-01  5.0571E-01  5.6302E-01  6.9313E-01  7.4039E-01
  7.9010E-01  7.9576E-01  8.5123E-01  8.7919E-01  9.2951E-01  9.7345E-01
  9.9872E-01  1.0582E+00  1.0965E+00  1.1243E+00  1.1732E+00  1.2212E+00
  1.2419E+00  1.2594E+00  1.3327E+00  1.3464E+00  1.3983E+00  1.4457E+00
  1.4639E+00  1.5460E+00  1.5952E+00  1.6334E+00  1.6658E+00  1.6905E+00
  prteigrs : nnsclo,ikpt=   30    8 max resid (incl. the buffer)=  1.12811E-07
 Non-SCF case, kpt    9 (  0.10000  0.30000  0.90000), residuals and eigenvalues=
  1.12E-14  3.81E-14  6.70E-14  1.19E-14  3.25E-14  5.07E-15  6.21E-15  1.25E-14
  8.00E-15  3.40E-14  2.68E-14  1.13E-14  3.37E-14  4.24E-15  2.37E-14  1.09E-14
  8.36E-14  1.71E-14  6.73E-14  2.81E-14  7.01E-14  1.45E-14  5.07E-14  6.71E-14
  8.12E-14  7.80E-14  8.78E-14  3.11E-14  2.85E-14  2.10E-14  4.41E-14  4.64E-14
  2.36E-13  2.77E-11  1.67E-08  3.00E-06
 -1.5638E-01  5.2946E-02  1.3073E-01  1.7972E-01  3.2625E-01  3.5973E-01
  4.0003E-01  4.1589E-01  5.1640E-01  6.0492E-01  6.1725E-01  6.8146E-01
  7.3474E-01  7.8653E-01  8.1357E-01  8.9029E-01  9.2647E-01  9.8467E-01
  1.0324E+00  1.0813E+00  1.1410E+00  1.1504E+00  1.2337E+00  1.2596E+00
  1.3079E+00  1.3459E+00  1.3812E+00  1.4029E+00  1.4121E+00  1.4755E+00
  1.4972E+00  1.5480E+00  1.5785E+00  1.6184E+00  1.6532E+00  1.6794E+00
  prteigrs : nnsclo,ikpt=   30    9 max resid (incl. the buffer)=  2.99773E-06
 Non-SCF case, kpt   10 (  0.10000  0.50000  0.50000), residuals and eigenvalues=
  7.96E-14  4.78E-14  8.71E-14  3.84E-15  7.02E-15  9.84E-14  5.08E-14  1.12E-14
  6.56E-14  3.75E-15  8.07E-15  3.01E-14  6.77E-15  2.59E-14  7.14E-14  9.30E-14
  1.58E-14  2.77E-14  1.93E-14  3.96E-14  3.74E-14  2.12E-14  4.89E-14  2.60E-14
  6.45E-14  4.67E-14  3.23E-14  4.81E-14  9.17E-14  3.55E-14  5.88E-14  7.72E-14
  1.50E-10  5.17E-09  5.91E-08  1.69E-06
 -8.4016E-02 -2.8897E-02  1.0845E-01  1.2856E-01  2.5646E-01  2.8451E-01
  5.4827E-01  5.5006E-01  6.2196E-01  6.2710E-01  6.8147E-01  6.8928E-01
  7.5160E-01  7.5628E-01  8.3273E-01  9.1184E-01  9.1567E-01  9.3453E-01
  9.8347E-01  1.0238E+00  1.0357E+00  1.0755E+00  1.1053E+00  1.1646E+00
  1.2946E+00  1.3237E+00  1.3856E+00  1.4326E+00  1.4622E+00  1.4787E+00
  1.5296E+00  1.5338E+00  1.6139E+00  1.6225E+00  1.6476E+00  1.6604E+00
  prteigrs : nnsclo,ikpt=   30   10 max resid (incl. the buffer)=  1.68872E-06
 Non-SCF case, kpt   11 (  0.10000  0.50000  0.70000), residuals and eigenvalues=
  2.34E-15  3.20E-14  2.57E-14  2.33E-14  6.68E-14  9.15E-15  1.57E-14  2.81E-14
  2.61E-14  7.27E-14  2.33E-14  6.92E-14  2.18E-14  9.08E-14  6.95E-14  2.08E-14
  5.02E-14  1.67E-14  6.54E-14  4.34E-14  1.40E-14  2.04E-14  5.84E-14  1.32E-14
  1.94E-14  4.05E-14  4.52E-14  6.05E-14  2.50E-14  3.82E-14  3.60E-14  6.43E-14
  5.19E-12  5.04E-10  3.75E-09  2.78E-05
 -7.9267E-02 -2.9613E-02  8.4610E-02  1.1944E-01  2.9422E-01  3.4740E-01
  4.5976E-01  5.2466E-01  5.5400E-01  6.3042E-01  6.7868E-01  7.5264E-01
  7.8252E-01  7.9137E-01  8.5135E-01  8.8514E-01  8.9945E-01  9.6854E-01
  9.8333E-01  1.0124E+00  1.0684E+00  1.0892E+00  1.1049E+00  1.1852E+00
  1.2748E+00  1.3310E+00  1.3458E+00  1.3656E+00  1.4109E+00  1.4302E+00
  1.4943E+00  1.5490E+00  1.6190E+00  1.6462E+00  1.6627E+00  1.7136E+00
  prteigrs : nnsclo,ikpt=   30   11 max resid (incl. the buffer)=  2.77856E-05
 Non-SCF case, kpt   12 (  0.10000  0.50000  0.90000), residuals and eigenvalues=
  8.65E-15  4.23E-14  6.62E-14  3.04E-14  1.09E-14  2.54E-14  1.98E-14  6.13E-14
  2.25E-14  9.05E-14  4.01E-14  2.79E-14  1.00E-14  1.16E-14  2.70E-14  8.72E-14
  6.52E-15  9.07E-14  4.78E-14  1.76E-14  8.24E-14  1.31E-14  1.68E-14  8.07E-14
  4.08E-14  1.84E-14  3.72E-14  5.96E-14  4.02E-14  4.65E-14  7.85E-14  7.99E-14
  5.08E-14  5.27E-12  1.94E-11  1.24E-08
 -1.1190E-01 -2.2128E-02  1.1993E-01  1.6184E-01  3.2839E-01  3.4146E-01
  4.1200E-01  5.1259E-01  5.1430E-01  5.9869E-01  6.4922E-01  6.6510E-01
  7.6146E-01  7.6490E-01  9.0863E-01  9.1275E-01  9.6853E-01  9.8889E-01
  9.9330E-01  1.0363E+00  1.1488E+00  1.1544E+00  1.1759E+00  1.1933E+00
  1.2488E+00  1.2992E+00  1.3123E+00  1.3556E+00  1.3802E+00  1.4372E+00
  1.4830E+00  1.5179E+00  1.5218E+00  1.6251E+00  1.6352E+00  1.6871E+00
  prteigrs : nnsclo,ikpt=   30   12 max resid (incl. the buffer)=  1.23968E-08
 Non-SCF case, kpt   13 (  0.10000  0.70000  0.70000), residuals and eigenvalues=
  4.34E-15  2.36E-14  9.07E-14  9.75E-15  6.47E-14  8.97E-14  1.08E-14  2.90E-14
  1.53E-14  1.33E-14  8.31E-14  9.73E-15  1.57E-14  3.27E-14  1.36E-14  2.95E-14
  3.79E-14  7.20E-14  1.63E-14  1.22E-14  1.89E-14  7.99E-14  4.83E-14  1.42E-14
  1.68E-14  6.90E-14  9.46E-14  3.54E-14  3.76E-14  3.27E-14  3.62E-14  3.55E-14
  5.67E-10  3.64E-08  8.24E-07  6.89E-05
 -1.3103E-01  2.9618E-02  1.2409E-01  1.3990E-01  2.6531E-01  3.0913E-01
  4.8137E-01  4.8725E-01  6.1405E-01  6.1500E-01  6.6941E-01  6.9760E-01
  7.5161E-01  7.6177E-01  8.1313E-01  8.5921E-01  8.6306E-01  9.2450E-01
  1.0475E+00  1.0760E+00  1.1399E+00  1.1424E+00  1.1754E+00  1.2254E+00
  1.2465E+00  1.2794E+00  1.3316E+00  1.4304E+00  1.4702E+00  1.5100E+00
  1.5385E+00  1.5459E+00  1.6095E+00  1.6288E+00  1.6584E+00  1.6820E+00
  prteigrs : nnsclo,ikpt=   30   13 max resid (incl. the buffer)=  6.88545E-05
 Non-SCF case, kpt   14 (  0.30000  0.30000  0.30000), residuals and eigenvalues=
  3.09E-14  4.14E-14  2.19E-14  1.56E-14  8.19E-14  5.01E-15  8.28E-14  3.00E-14
  7.57E-14  9.92E-15  3.08E-14  5.33E-14  1.01E-14  1.39E-14  2.36E-14  1.29E-14
  1.47E-14  2.34E-14  5.73E-14  7.89E-14  6.37E-14  3.81E-14  7.15E-14  8.88E-14
  4.14E-14  3.02E-14  4.75E-14  3.38E-14  2.97E-14  3.08E-14  5.57E-14  5.82E-14
  5.62E-13  1.43E-08  6.43E-08  2.02E-05
 -1.6887E-01  5.2425E-02  1.9569E-01  1.9569E-01  2.9318E-01  3.5859E-01
  3.5859E-01  5.0215E-01  5.0845E-01  5.0845E-01  5.4737E-01  6.9419E-01
  7.7846E-01  7.7846E-01  8.5086E-01  8.6125E-01  8.6125E-01  9.9164E-01
  1.1066E+00  1.1066E+00  1.1831E+00  1.1917E+00  1.1917E+00  1.2865E+00
  1.3393E+00  1.3393E+00  1.3454E+00  1.4296E+00  1.4296E+00  1.4741E+00
  1.4741E+00  1.5541E+00  1.5954E+00  1.6448E+00  1.6753E+00  1.6753E+00
  prteigrs : nnsclo,ikpt=   30   14 max resid (incl. the buffer)=  2.02440E-05
 Non-SCF case, kpt   15 (  0.30000  0.30000  0.50000), residuals and eigenvalues=
  7.44E-15  1.87E-14  1.70E-14  7.36E-14  2.10E-14  1.51E-14  4.66E-14  6.26E-14
  4.66E-14  7.09E-14  7.21E-14  1.59E-14  2.52E-14  2.89E-14  6.51E-14  2.49E-14
  3.81E-14  1.13E-14  1.00E-14  1.23E-14  9.23E-15  2.99E-14  8.16E-14  8.86E-14
  9.19E-14  8.53E-14  2.48E-14  6.12E-14  5.88E-14  2.04E-14  3.81E-14  6.47E-14
  6.54E-14  8.09E-14  1.88E-09  7.92E-05
 -1.3448E-01  1.8775E-02  1.0177E-01  1.8098E-01  3.1694E-01  3.9505E-01
  3.9526E-01  4.7091E-01  4.7970E-01  5.7589E-01  6.6102E-01  7.0150E-01
  7.4878E-01  8.2399E-01  8.2592E-01  8.6671E-01  9.3430E-01  1.0066E+00
  1.0282E+00  1.0832E+00  1.1328E+00  1.1423E+00  1.2046E+00  1.2260E+00
  1.2308E+00  1.2988E+00  1.3020E+00  1.3916E+00  1.4513E+00  1.4722E+00
  1.5244E+00  1.5524E+00  1.5724E+00  1.5729E+00  1.6223E+00  1.6820E+00
  prteigrs : nnsclo,ikpt=   30   15 max resid (incl. the buffer)=  7.92470E-05
 Non-SCF case, kpt   16 (  0.30000  0.30000  0.70000), residuals and eigenvalues=
  1.89E-14  2.13E-14  3.05E-14  5.18E-14  6.24E-14  3.08E-14  1.14E-14  1.88E-14
  4.87E-15  8.97E-15  2.39E-14  6.32E-15  1.45E-14  2.42E-14  9.85E-14  2.21E-14
  9.31E-15  2.48E-14  1.71E-14  1.02E-14  2.25E-14  2.24E-14  1.60E-14  5.31E-14
  2.18E-14  4.46E-14  8.93E-14  7.76E-14  3.43E-14  5.01E-14  3.29E-14  2.52E-14
  2.15E-12  4.85E-12  3.32E-10  2.89E-10
 -8.7910E-02 -2.4789E-02  7.2789E-02  1.4808E-01  2.8033E-01  4.1716E-01
  4.6384E-01  4.6785E-01  5.3714E-01  5.4181E-01  7.2698E-01  7.5802E-01
  7.6100E-01  8.3765E-01  8.5455E-01  8.7989E-01  8.9104E-01  9.5292E-01
  1.0000E+00  1.0409E+00  1.0887E+00  1.1000E+00  1.1461E+00  1.2374E+00
  1.2485E+00  1.2618E+00  1.2938E+00  1.3306E+00  1.4556E+00  1.4803E+00
  1.4933E+00  1.5145E+00  1.5798E+00  1.6148E+00  1.6512E+00  1.6625E+00
  prteigrs : nnsclo,ikpt=   30   16 max resid (incl. the buffer)=  3.31519E-10
 Non-SCF case, kpt   17 (  0.30000  0.50000  0.50000), residuals and eigenvalues=
  4.79E-14  1.65E-14  6.84E-15  1.67E-14  1.29E-14  3.43E-14  1.85E-14  5.37E-14
  3.11E-14  8.00E-15  4.24E-14  4.98E-14  3.16E-14  5.22E-14  2.72E-14  1.53E-14
  6.17E-14  6.01E-14  2.63E-14  1.97E-14  1.04E-14  2.15E-14  1.57E-14  2.83E-14
  1.88E-14  5.83E-14  1.92E-14  4.45E-14  8.38E-14  5.09E-14  6.18E-14  3.12E-14
  2.76E-14  7.20E-14  2.26E-10  7.12E-07
 -1.1602E-01 -9.8831E-03  1.1353E-01  1.5762E-01  2.9434E-01  3.9860E-01
  4.1607E-01  4.3395E-01  5.8334E-01  6.1383E-01  6.6655E-01  6.6770E-01
  6.8767E-01  8.3898E-01  8.7607E-01  9.0629E-01  9.5741E-01  9.6083E-01
  9.7192E-01  1.0714E+00  1.0829E+00  1.1829E+00  1.1872E+00  1.2201E+00
  1.2534E+00  1.2911E+00  1.3263E+00  1.3437E+00  1.3803E+00  1.4696E+00
  1.4998E+00  1.5322E+00  1.5477E+00  1.5686E+00  1.6498E+00  1.7010E+00
  prteigrs : nnsclo,ikpt=   30   17 max resid (incl. the buffer)=  7.12249E-07
 Non-SCF case, kpt   18 (  0.30000  0.50000  0.70000), residuals and eigenvalues=
  1.95E-14  8.23E-15  1.48E-14  9.53E-14  8.42E-15  4.25E-14  3.36E-14  3.07E-14
  8.55E-15  6.14E-14  5.86E-14  1.02E-14  1.29E-14  6.09E-14  1.03E-14  4.82E-14
  1.79E-14  1.36E-14  2.50E-14  8.39E-14  2.32E-14  6.11E-14  2.04E-14  2.15E-14
  4.06E-14  9.07E-14  2.77E-14  5.95E-14  3.14E-14  4.76E-14  8.19E-14  9.04E-14
  1.10E-11  2.58E-10  2.84E-08  1.33E-07
 -7.5782E-02 -3.0818E-02  7.6566E-02  1.0968E-01  3.6188E-01  3.7324E-01
  4.2497E-01  4.4095E-01  5.5316E-01  6.3638E-01  6.7356E-01  7.5217E-01
  7.8201E-01  8.5645E-01  8.6257E-01  8.9420E-01  8.9677E-01  9.5184E-01
  9.7925E-01  9.7942E-01  1.0552E+00  1.1329E+00  1.1912E+00  1.1959E+00
  1.2498E+00  1.2807E+00  1.2957E+00  1.3385E+00  1.3814E+00  1.4035E+00
  1.5008E+00  1.5718E+00  1.6123E+00  1.6558E+00  1.7011E+00  1.7029E+00
  prteigrs : nnsclo,ikpt=   30   18 max resid (incl. the buffer)=  1.33314E-07
 Non-SCF case, kpt   19 (  0.50000  0.50000  0.50000), residuals and eigenvalues=
  1.18E-14  3.37E-14  5.28E-14  1.07E-14  9.77E-15  1.56E-14  5.39E-15  8.28E-14
  7.43E-14  4.29E-14  3.56E-14  3.26E-14  1.78E-14  4.38E-14  1.49E-14  3.08E-15
  2.01E-14  1.36E-14  4.08E-14  2.95E-14  9.45E-14  5.16E-14  1.77E-14  4.07E-14
  8.69E-14  8.12E-14  5.25E-14  7.92E-14  3.45E-14  8.46E-14  2.29E-14  6.81E-14
  2.16E-12  3.39E-11  4.79E-06  5.38E-05
 -1.2464E-01 -2.7603E-02  1.8530E-01  1.8530E-01  2.8117E-01  3.5157E-01
  3.5157E-01  5.0660E-01  6.1732E-01  6.1732E-01  6.3565E-01  6.4301E-01
  6.4301E-01  6.9198E-01  9.2720E-01  9.5272E-01  1.0198E+00  1.0198E+00
  1.0251E+00  1.0251E+00  1.1604E+00  1.1979E+00  1.1979E+00  1.2159E+00
  1.2159E+00  1.2587E+00  1.3756E+00  1.4013E+00  1.4013E+00  1.4127E+00
  1.4294E+00  1.4294E+00  1.5340E+00  1.5708E+00  1.7238E+00  1.7240E+00
  prteigrs : nnsclo,ikpt=   30   19 max resid (incl. the buffer)=  5.37528E-05
================================================================================
 
 ----iterations are completed or convergence reached----
 
 Mean square residual over all n,k,spin=   5.9455E-07; max=  1.1393E-04
   0.1000  0.1000  0.1000    1  1.55575E-07 kpt; spin; max resid(k); each band:
  2.09E-14 1.12E-14 5.01E-14 1.15E-14 8.28E-15 4.33E-14 3.57E-14 3.33E-14
  1.04E-14 2.32E-14 5.36E-14 5.10E-14 2.94E-14 2.40E-14 1.39E-14 3.82E-14
  4.16E-14 4.24E-14 2.65E-14 3.94E-14 4.44E-14 7.61E-14 1.44E-14 5.63E-14
  2.78E-14 2.01E-14 7.43E-14 5.01E-14 6.18E-14 2.55E-14 7.16E-14 2.42E-14
  2.10E-12 6.97E-11 1.53E-07 1.56E-07
   0.1000  0.1000  0.3000    1  4.94113E-06 kpt; spin; max resid(k); each band:
  5.60E-14 9.05E-14 7.37E-14 2.56E-14 1.83E-14 3.84E-14 4.10E-14 3.22E-14
  6.06E-14 5.64E-14 4.25E-14 7.22E-14 7.39E-14 8.78E-15 8.64E-14 1.06E-14
  1.85E-14 2.57E-14 3.82E-14 1.31E-14 2.46E-14 9.31E-14 6.70E-14 5.62E-14
  5.30E-14 8.33E-14 3.34E-14 5.92E-14 5.43E-14 7.16E-14 8.97E-14 8.01E-14
  6.72E-10 1.98E-10 6.47E-07 4.94E-06
   0.1000  0.1000  0.5000    1  8.85722E-06 kpt; spin; max resid(k); each band:
  2.83E-15 1.26E-14 5.61E-14 4.34E-14 4.66E-14 3.39E-14 1.81E-14 1.53E-14
  5.25E-14 4.90E-14 3.91E-14 7.34E-14 7.03E-15 6.18E-14 1.01E-14 9.37E-14
  3.77E-14 8.64E-15 6.47E-15 2.77E-14 7.69E-14 7.86E-14 7.51E-14 4.85E-14
  2.79E-14 8.05E-14 1.51E-14 7.81E-14 2.39E-14 5.10E-14 6.17E-14 6.53E-14
  3.49E-11 4.31E-11 8.19E-08 8.86E-06
   0.1000  0.1000  0.7000    1  8.29042E-07 kpt; spin; max resid(k); each band:
  9.41E-14 4.61E-14 5.18E-14 1.73E-14 4.92E-15 1.26E-14 1.37E-14 1.83E-14
  8.15E-15 2.49E-14 3.02E-14 7.57E-15 9.69E-14 7.38E-15 9.92E-15 1.67E-14
  1.34E-14 2.79E-14 1.28E-14 3.86E-14 1.13E-14 1.96E-14 3.36E-14 6.80E-14
  3.35E-14 9.19E-14 1.55E-14 7.89E-14 2.56E-14 2.53E-14 6.85E-14 9.49E-14
  1.49E-11 5.92E-11 2.09E-10 8.29E-07
   0.1000  0.1000  0.9000    1  1.13931E-04 kpt; spin; max resid(k); each band:
  4.68E-14 3.81E-15 6.43E-15 6.75E-15 2.32E-14 7.32E-15 7.32E-15 1.51E-14
  1.03E-14 9.97E-14 4.65E-14 6.96E-15 1.55E-14 2.31E-14 5.94E-14 2.24E-14
  9.63E-14 2.21E-14 6.95E-14 5.92E-14 9.23E-14 7.00E-14 9.36E-14 3.15E-14
  7.23E-14 3.23E-14 3.15E-14 3.23E-14 6.20E-14 6.80E-14 3.96E-14 8.19E-14
  7.22E-14 2.38E-09 2.80E-10 1.14E-04
   0.1000  0.3000  0.3000    1  5.02018E-06 kpt; spin; max resid(k); each band:
  3.00E-15 1.86E-14 1.06E-14 2.77E-14 8.19E-15 1.72E-14 4.39E-14 1.03E-14
  8.98E-15 2.82E-14 5.02E-14 8.85E-14 3.26E-14 9.41E-14 1.02E-14 9.44E-15
  5.29E-14 3.90E-14 6.90E-14 1.04E-14 4.70E-14 3.33E-14 3.44E-14 2.91E-14
  5.56E-14 3.45E-14 1.64E-14 4.41E-14 3.80E-14 3.52E-14 3.26E-14 5.25E-14
  5.15E-13 6.34E-13 1.47E-07 5.02E-06
   0.1000  0.3000  0.5000    1  1.04965E-05 kpt; spin; max resid(k); each band:
  3.81E-15 6.79E-14 7.66E-15 1.09E-14 2.98E-14 1.03E-14 8.34E-15 1.22E-14
  2.69E-14 2.96E-14 1.18E-14 9.24E-14 3.70E-14 9.87E-14 3.08E-14 2.85E-14
  1.67E-14 3.76E-14 5.41E-14 9.94E-14 4.01E-14 7.39E-15 6.88E-14 9.06E-14
  1.64E-14 4.82E-14 8.07E-14 4.47E-14 7.31E-14 1.79E-14 4.84E-14 9.72E-14
  8.66E-14 2.16E-11 1.78E-08 1.05E-05
   0.1000  0.3000  0.7000    1  1.12811E-07 kpt; spin; max resid(k); each band:
  8.77E-14 2.89E-14 6.44E-15 9.34E-15 1.24E-14 1.65E-14 6.13E-15 3.31E-14
  2.86E-14 3.27E-14 1.93E-14 3.49E-14 8.57E-15 6.84E-14 5.48E-14 3.15E-14
  1.58E-14 3.73E-14 1.73E-14 1.06E-14 4.25E-14 1.21E-14 3.32E-14 2.92E-14
  2.01E-14 6.44E-14 3.41E-14 2.04E-14 3.11E-14 9.66E-14 3.39E-14 7.55E-14
  5.20E-13 2.16E-11 3.26E-09 1.13E-07
   0.1000  0.3000  0.9000    1  2.99773E-06 kpt; spin; max resid(k); each band:
  1.12E-14 3.81E-14 6.70E-14 1.19E-14 3.25E-14 5.07E-15 6.21E-15 1.25E-14
  8.00E-15 3.40E-14 2.68E-14 1.13E-14 3.37E-14 4.24E-15 2.37E-14 1.09E-14
  8.36E-14 1.71E-14 6.73E-14 2.81E-14 7.01E-14 1.45E-14 5.07E-14 6.71E-14
  8.12E-14 7.80E-14 8.78E-14 3.11E-14 2.85E-14 2.10E-14 4.41E-14 4.64E-14
  2.36E-13 2.77E-11 1.67E-08 3.00E-06
   0.1000  0.5000  0.5000    1  1.68872E-06 kpt; spin; max resid(k); each band:
  7.96E-14 4.78E-14 8.71E-14 3.84E-15 7.02E-15 9.84E-14 5.08E-14 1.12E-14
  6.56E-14 3.75E-15 8.07E-15 3.01E-14 6.77E-15 2.59E-14 7.14E-14 9.30E-14
  1.58E-14 2.77E-14 1.93E-14 3.96E-14 3.74E-14 2.12E-14 4.89E-14 2.60E-14
  6.45E-14 4.67E-14 3.23E-14 4.81E-14 9.17E-14 3.55E-14 5.88E-14 7.72E-14
  1.50E-10 5.17E-09 5.91E-08 1.69E-06
   0.1000  0.5000  0.7000    1  2.77856E-05 kpt; spin; max resid(k); each band:
  2.34E-15 3.20E-14 2.57E-14 2.33E-14 6.68E-14 9.15E-15 1.57E-14 2.81E-14
  2.61E-14 7.27E-14 2.33E-14 6.92E-14 2.18E-14 9.08E-14 6.95E-14 2.08E-14
  5.02E-14 1.67E-14 6.54E-14 4.34E-14 1.40E-14 2.04E-14 5.84E-14 1.32E-14
  1.94E-14 4.05E-14 4.52E-14 6.05E-14 2.50E-14 3.82E-14 3.60E-14 6.43E-14
  5.19E-12 5.04E-10 3.75E-09 2.78E-05
   0.1000  0.5000  0.9000    1  1.23968E-08 kpt; spin; max resid(k); each band:
  8.65E-15 4.23E-14 6.62E-14 3.04E-14 1.09E-14 2.54E-14 1.98E-14 6.13E-14
  2.25E-14 9.05E-14 4.01E-14 2.79E-14 1.00E-14 1.16E-14 2.70E-14 8.72E-14
  6.52E-15 9.07E-14 4.78E-14 1.76E-14 8.24E-14 1.31E-14 1.68E-14 8.07E-14
  4.08E-14 1.84E-14 3.72E-14 5.96E-14 4.02E-14 4.65E-14 7.85E-14 7.99E-14
  5.08E-14 5.27E-12 1.94E-11 1.24E-08
   0.1000  0.7000  0.7000    1  6.88545E-05 kpt; spin; max resid(k); each band:
  4.34E-15 2.36E-14 9.07E-14 9.75E-15 6.47E-14 8.97E-14 1.08E-14 2.90E-14
  1.53E-14 1.33E-14 8.31E-14 9.73E-15 1.57E-14 3.27E-14 1.36E-14 2.95E-14
  3.79E-14 7.20E-14 1.63E-14 1.22E-14 1.89E-14 7.99E-14 4.83E-14 1.42E-14
  1.68E-14 6.90E-14 9.46E-14 3.54E-14 3.76E-14 3.27E-14 3.62E-14 3.55E-14
  5.67E-10 3.64E-08 8.24E-07 6.89E-05
   0.3000  0.3000  0.3000    1  2.02440E-05 kpt; spin; max resid(k); each band:
  3.09E-14 4.14E-14 2.19E-14 1.56E-14 8.19E-14 5.01E-15 8.28E-14 3.00E-14
  7.57E-14 9.92E-15 3.08E-14 5.33E-14 1.01E-14 1.39E-14 2.36E-14 1.29E-14
  1.47E-14 2.34E-14 5.73E-14 7.89E-14 6.37E-14 3.81E-14 7.15E-14 8.88E-14
  4.14E-14 3.02E-14 4.75E-14 3.38E-14 2.97E-14 3.08E-14 5.57E-14 5.82E-14
  5.62E-13 1.43E-08 6.43E-08 2.02E-05
   0.3000  0.3000  0.5000    1  7.92470E-05 kpt; spin; max resid(k); each band:
  7.44E-15 1.87E-14 1.70E-14 7.36E-14 2.10E-14 1.51E-14 4.66E-14 6.26E-14
  4.66E-14 7.09E-14 7.21E-14 1.59E-14 2.52E-14 2.89E-14 6.51E-14 2.49E-14
  3.81E-14 1.13E-14 1.00E-14 1.23E-14 9.23E-15 2.99E-14 8.16E-14 8.86E-14
  9.19E-14 8.53E-14 2.48E-14 6.12E-14 5.88E-14 2.04E-14 3.81E-14 6.47E-14
  6.54E-14 8.09E-14 1.88E-09 7.92E-05
   0.3000  0.3000  0.7000    1  3.31519E-10 kpt; spin; max resid(k); each band:
  1.89E-14 2.13E-14 3.05E-14 5.18E-14 6.24E-14 3.08E-14 1.14E-14 1.88E-14
  4.87E-15 8.97E-15 2.39E-14 6.32E-15 1.45E-14 2.42E-14 9.85E-14 2.21E-14
  9.31E-15 2.48E-14 1.71E-14 1.02E-14 2.25E-14 2.24E-14 1.60E-14 5.31E-14
  2.18E-14 4.46E-14 8.93E-14 7.76E-14 3.43E-14 5.01E-14 3.29E-14 2.52E-14
  2.15E-12 4.85E-12 3.32E-10 2.89E-10
   0.3000  0.5000  0.5000    1  7.12249E-07 kpt; spin; max resid(k); each band:
  4.79E-14 1.65E-14 6.84E-15 1.67E-14 1.29E-14 3.43E-14 1.85E-14 5.37E-14
  3.11E-14 8.00E-15 4.24E-14 4.98E-14 3.16E-14 5.22E-14 2.72E-14 1.53E-14
  6.17E-14 6.01E-14 2.63E-14 1.97E-14 1.04E-14 2.15E-14 1.57E-14 2.83E-14
  1.88E-14 5.83E-14 1.92E-14 4.45E-14 8.38E-14 5.09E-14 6.18E-14 3.12E-14
  2.76E-14 7.20E-14 2.26E-10 7.12E-07
   0.3000  0.5000  0.7000    1  1.33314E-07 kpt; spin; max resid(k); each band:
  1.95E-14 8.23E-15 1.48E-14 9.53E-14 8.42E-15 4.25E-14 3.36E-14 3.07E-14
  8.55E-15 6.14E-14 5.86E-14 1.02E-14 1.29E-14 6.09E-14 1.03E-14 4.82E-14
  1.79E-14 1.36E-14 2.50E-14 8.39E-14 2.32E-14 6.11E-14 2.04E-14 2.15E-14
  4.06E-14 9.07E-14 2.77E-14 5.95E-14 3.14E-14 4.76E-14 8.19E-14 9.04E-14
  1.10E-11 2.58E-10 2.84E-08 1.33E-07
   0.5000  0.5000  0.5000    1  5.37528E-05 kpt; spin; max resid(k); each band:
  1.18E-14 3.37E-14 5.28E-14 1.07E-14 9.77E-15 1.56E-14 5.39E-15 8.28E-14
  7.43E-14 4.29E-14 3.56E-14 3.26E-14 1.78E-14 4.38E-14 1.49E-14 3.08E-15
  2.01E-14 1.36E-14 4.08E-14 2.95E-14 9.45E-14 5.16E-14 1.77E-14 4.07E-14
  8.69E-14 8.12E-14 5.25E-14 7.92E-14 3.45E-14 8.46E-14 2.29E-14 6.81E-14
  2.16E-12 3.39E-11 4.79E-06 5.38E-05
 reduced coordinates (array xred) for    2 atoms
      -0.125000000000     -0.125000000000     -0.125000000000
       0.125000000000      0.125000000000      0.125000000000
 
 cartesian coordinates (angstrom) at end:
    1     -0.67874914659796    -0.67874914659796    -0.67874914659796
    2      0.67874914659796     0.67874914659796     0.67874914659796
 length scales= 10.261200000000 10.261200000000 10.261200000000 bohr
              =  5.429993172784  5.429993172784  5.429993172784 angstroms
 prteigrs : about to open file o_EIG
 Eigenvalues (hartree) for nkpt=  19  k points:
 kpt#   1, nband= 36, wtk=  0.01600, kpt=  0.1000  0.1000  0.1000 (reduced coord)
  -0.20577   0.18657   0.22185   0.22185   0.32120   0.33373   0.33373   0.37914
   0.50125   0.50125   0.53005   0.62210   0.66840   0.66840   0.81354   1.02021
   1.02021   1.02028   1.09914   1.09914   1.16868   1.16868   1.19015   1.31333
   1.36150   1.36150   1.43134   1.48335   1.48335   1.53417   1.59244   1.59244
   1.66196   1.66196   1.71047   1.74368
 kpt#   2, nband= 36, wtk=  0.04800, kpt=  0.1000  0.1000  0.3000 (reduced coord)
  -0.18063   0.09479   0.16392   0.21072   0.32593   0.35267   0.36398   0.44342
   0.46290   0.54275   0.58078   0.64885   0.71971   0.79347   0.82856   0.89975
   0.93827   0.97391   1.04401   1.07085   1.18461   1.19414   1.26111   1.29608
   1.34968   1.36999   1.40932   1.43583   1.45115   1.48061   1.50725   1.55528
   1.61801   1.62500   1.65513   1.66867
 kpt#   3, nband= 36, wtk=  0.04800, kpt=  0.1000  0.1000  0.5000 (reduced coord)
  -0.12884  -0.01300   0.15154   0.18358   0.30673   0.35443   0.36423   0.51972
   0.54483   0.56593   0.63423   0.67147   0.72651   0.74192   0.85978   0.92868
   0.98788   1.01510   1.04774   1.05582   1.14004   1.14412   1.21236   1.22117
   1.24102   1.29927   1.34428   1.35025   1.42872   1.44086   1.44597   1.46465
   1.59173   1.59322   1.64333   1.68514
 kpt#   4, nband= 36, wtk=  0.04800, kpt=  0.1000  0.1000  0.7000 (reduced coord)
  -0.14632   0.01604   0.16689   0.17502   0.30796   0.35067   0.37963   0.46134
   0.55289   0.57953   0.59636   0.70231   0.71374   0.78369   0.84745   0.86935
   0.92167   1.05087   1.06149   1.09013   1.10768   1.14246   1.22361   1.27074
   1.28700   1.32120   1.34287   1.37311   1.41335   1.44075   1.48301   1.50014
   1.59920   1.61070   1.62855   1.68430
 kpt#   5, nband= 36, wtk=  0.04800, kpt=  0.1000  0.1000  0.9000 (reduced coord)
  -0.19301   0.13847   0.19208   0.19805   0.31007   0.35180   0.37571   0.40858
   0.47455   0.52113   0.57115   0.63395   0.68749   0.72401   0.88385   0.91875
   0.93149   1.02452   1.03909   1.06882   1.17512   1.20222   1.23942   1.34929
   1.36901   1.40874   1.41713   1.44141   1.45433   1.47618   1.54920   1.56347
   1.58860   1.65392   1.65490   1.71057
 kpt#   6, nband= 36, wtk=  0.04800, kpt=  0.1000  0.3000  0.3000 (reduced coord)
  -0.16785   0.08639   0.15568   0.16185   0.28441   0.35337   0.41637   0.42950
   0.53656   0.56011   0.62856   0.68462   0.71890   0.76804   0.82905   0.84712
   0.94379   0.96974   0.99331   1.09935   1.16649   1.21515   1.21812   1.29303
   1.30644   1.31795   1.36384   1.45685   1.45958   1.52040   1.53757   1.54092
   1.57753   1.59632   1.67191   1.68892
 kpt#   7, nband= 36, wtk=  0.09600, kpt=  0.1000  0.3000  0.5000 (reduced coord)
  -0.12154   0.01302   0.10284   0.14043   0.30626   0.36487   0.40393   0.48170
   0.59314   0.59368   0.68402   0.69683   0.73577   0.77492   0.85365   0.87792
   0.93683   0.96413   1.00149   1.04334   1.09879   1.12248   1.19851   1.22179
   1.27344   1.29819   1.35095   1.38774   1.40868   1.42502   1.48148   1.56110
   1.58253   1.62840   1.67360   1.71930
 kpt#   8, nband= 36, wtk=  0.09600, kpt=  0.1000  0.3000  0.7000 (reduced coord)
  -0.10499  -0.00917   0.08215   0.14721   0.32549   0.37802   0.44494   0.47418
   0.50571   0.56302   0.69313   0.74039   0.79010   0.79576   0.85123   0.87919
   0.92951   0.97345   0.99872   1.05819   1.09648   1.12431   1.17320   1.22115
   1.24191   1.25944   1.33268   1.34638   1.39833   1.44572   1.46392   1.54602
   1.59520   1.63340   1.66578   1.69054
 kpt#   9, nband= 36, wtk=  0.09600, kpt=  0.1000  0.3000  0.9000 (reduced coord)
  -0.15638   0.05295   0.13073   0.17972   0.32625   0.35973   0.40003   0.41589
   0.51640   0.60492   0.61725   0.68146   0.73474   0.78653   0.81357   0.89029
   0.92647   0.98467   1.03240   1.08128   1.14103   1.15042   1.23366   1.25960
   1.30790   1.34590   1.38124   1.40290   1.41207   1.47546   1.49721   1.54795
   1.57854   1.61843   1.65321   1.67941
 kpt#  10, nband= 36, wtk=  0.04800, kpt=  0.1000  0.5000  0.5000 (reduced coord)
  -0.08402  -0.02890   0.10845   0.12856   0.25646   0.28451   0.54827   0.55006
   0.62196   0.62710   0.68147   0.68928   0.75160   0.75628   0.83273   0.91184
   0.91567   0.93453   0.98347   1.02383   1.03574   1.07552   1.10534   1.16462
   1.29457   1.32368   1.38555   1.43265   1.46219   1.47867   1.52963   1.53384
   1.61394   1.62248   1.64762   1.66036
 kpt#  11, nband= 36, wtk=  0.09600, kpt=  0.1000  0.5000  0.7000 (reduced coord)
  -0.07927  -0.02961   0.08461   0.11944   0.29422   0.34740   0.45976   0.52466
   0.55400   0.63042   0.67868   0.75264   0.78252   0.79137   0.85135   0.88514
   0.89945   0.96854   0.98333   1.01243   1.06840   1.08917   1.10492   1.18522
   1.27481   1.33098   1.34578   1.36555   1.41094   1.43024   1.49435   1.54901
   1.61905   1.64616   1.66275   1.71360
 kpt#  12, nband= 36, wtk=  0.04800, kpt=  0.1000  0.5000  0.9000 (reduced coord)
  -0.11190  -0.02213   0.11993   0.16184   0.32839   0.34146   0.41200   0.51259
   0.51430   0.59869   0.64922   0.66510   0.76146   0.76490   0.90863   0.91275
   0.96853   0.98889   0.99330   1.03632   1.14883   1.15444   1.17594   1.19326
   1.24876   1.29919   1.31234   1.35556   1.38022   1.43722   1.48304   1.51785
   1.52180   1.62507   1.63520   1.68714
 kpt#  13, nband= 36, wtk=  0.04800, kpt=  0.1000  0.7000  0.7000 (reduced coord)
  -0.13103   0.02962   0.12409   0.13990   0.26531   0.30913   0.48137   0.48725
   0.61405   0.61500   0.66941   0.69760   0.75161   0.76177   0.81313   0.85921
   0.86306   0.92450   1.04747   1.07603   1.13993   1.14242   1.17536   1.22543
   1.24651   1.27939   1.33162   1.43043   1.47019   1.50998   1.53845   1.54589
   1.60951   1.62876   1.65843   1.68196
 kpt#  14, nband= 36, wtk=  0.01600, kpt=  0.3000  0.3000  0.3000 (reduced coord)
  -0.16887   0.05243   0.19569   0.19569   0.29318   0.35859   0.35859   0.50215
   0.50845   0.50845   0.54737   0.69419   0.77846   0.77846   0.85086   0.86125
   0.86125   0.99164   1.10662   1.10662   1.18314   1.19165   1.19165   1.28646
   1.33930   1.33930   1.34537   1.42962   1.42962   1.47408   1.47408   1.55408
   1.59538   1.64481   1.67526   1.67531
 kpt#  15, nband= 36, wtk=  0.04800, kpt=  0.3000  0.3000  0.5000 (reduced coord)
  -0.13448   0.01878   0.10177   0.18098   0.31694   0.39505   0.39526   0.47091
   0.47970   0.57589   0.66102   0.70150   0.74878   0.82399   0.82592   0.86671
   0.93430   1.00659   1.02819   1.08315   1.13285   1.14231   1.20459   1.22596
   1.23077   1.29884   1.30203   1.39165   1.45127   1.47225   1.52444   1.55245
   1.57235   1.57287   1.62230   1.68205
 kpt#  16, nband= 36, wtk=  0.04800, kpt=  0.3000  0.3000  0.7000 (reduced coord)
  -0.08791  -0.02479   0.07279   0.14808   0.28033   0.41716   0.46384   0.46785
   0.53714   0.54181   0.72698   0.75802   0.76100   0.83765   0.85455   0.87989
   0.89104   0.95292   1.00000   1.04092   1.08873   1.10002   1.14611   1.23740
   1.24849   1.26176   1.29378   1.33062   1.45564   1.48034   1.49331   1.51451
   1.57975   1.61480   1.65124   1.66253
 kpt#  17, nband= 36, wtk=  0.04800, kpt=  0.3000  0.5000  0.5000 (reduced coord)
  -0.11602  -0.00988   0.11353   0.15762   0.29434   0.39860   0.41607   0.43395
   0.58334   0.61383   0.66655   0.66770   0.68767   0.83898   0.87607   0.90629
   0.95741   0.96083   0.97192   1.07144   1.08286   1.18295   1.18723   1.22015
   1.25335   1.29112   1.32634   1.34369   1.38034   1.46963   1.49980   1.53218
   1.54768   1.56861   1.64977   1.70097
 kpt#  18, nband= 36, wtk=  0.04800, kpt=  0.3000  0.5000  0.7000 (reduced coord)
  -0.07578  -0.03082   0.07657   0.10968   0.36188   0.37324   0.42497   0.44095
   0.55316   0.63638   0.67356   0.75217   0.78201   0.85645   0.86257   0.89420
   0.89677   0.95184   0.97925   0.97942   1.05516   1.13288   1.19120   1.19586
   1.24979   1.28068   1.29574   1.33850   1.38142   1.40348   1.50078   1.57178
   1.61233   1.65579   1.70105   1.70289
 kpt#  19, nband= 36, wtk=  0.00800, kpt=  0.5000  0.5000  0.5000 (reduced coord)
  -0.12464  -0.02760   0.18530   0.18530   0.28117   0.35157   0.35157   0.50660
   0.61732   0.61732   0.63565   0.64301   0.64301   0.69198   0.92720   0.95272
   1.01978   1.01978   1.02507   1.02507   1.16045   1.19787   1.19787   1.21587
   1.21587   1.25875   1.37555   1.40135   1.40135   1.41270   1.42938   1.42938
   1.53396   1.57077   1.72382   1.72401
 Total charge density [el/Bohr^3]
,     Maximum=    0.0000E+00  at reduced coord.    0.9667    0.9667    0.9667
,Next maximum=    0.0000E+00  at reduced coord.    0.9333    0.9667    0.9667
,     Minimum=    0.0000E+00  at reduced coord.    0.0000    0.0000    0.0000
,Next minimum=    0.0000E+00  at reduced coord.    0.0333    0.0000    0.0000
,  Integrated=    0.0000E+00
 
--------------------------------------------------------------------------------
 Components of total free energy (in Hartree) :
 
    Kinetic energy  =  3.05601582866611E+00
    Hartree energy  =  5.47965107525444E-01
    XC energy       = -2.39472536766002E+00
    Ewald energy    = -8.39948239058486E+00
    PspCore energy  = -6.50884021995559E-02
    Loc. psp. energy= -2.47111528783825E+00
    NL   psp  energy=  1.78604851890468E+00
    >>>>>>>>> Etotal= -7.94038199318645E+00
 
 "Double-counting" decomposition of free energy:
    Band energy     =  3.43075168829189E-01
    Ewald energy    = -8.39948239058486E+00
    PspCore energy  = -6.50884021995559E-02
    Dble-C XC-energy=  1.81113473819619E-01
    >>>> Etotal (DC)= -7.94038215013561E+00
--------------------------------------------------------------------------------
 
== END DATASET(S) ==============================================================
================================================================================
  
 -outvars: echo values of variables after computation  --------
            acell      1.0261200000E+01  1.0261200000E+01  1.0261200000E+01 Bohr
              amu      2.80855000E+01
      chksymbreak           0
             ecut      2.00000000E+01 Hartree
           etotal     -7.9403821501E+00
-          fftalg         312
           irdden           1
             iscf          -3
           istwfk        0    0    0    0    0    0    0    0    0    0
                         0    0    0    0    0    0    0    0    1
              ixc           7
              kpt      1.00000000E-01  1.00000000E-01  1.00000000E-01
                       1.00000000E-01  1.00000000E-01  3.00000000E-01
                       1.00000000E-01  1.00000000E-01  5.00000000E-01
                       1.00000000E-01  1.00000000E-01  7.00000000E-01
                       1.00000000E-01  1.00000000E-01  9.00000000E-01
                       1.00000000E-01  3.00000000E-01  3.00000000E-01
                       1.00000000E-01  3.00000000E-01  5.00000000E-01
                       1.00000000E-01  3.00000000E-01  7.00000000E-01
                       1.00000000E-01  3.00000000E-01  9.00000000E-01
                       1.00000000E-01  5.00000000E-01  5.00000000E-01
                       1.00000000E-01  5.00000000E-01  7.00000000E-01
                       1.00000000E-01  5.00000000E-01  9.00000000E-01
                       1.00000000E-01  7.00000000E-01  7.00000000E-01
                       3.00000000E-01  3.00000000E-01  3.00000000E-01
                       3.00000000E-01  3.00000000E-01  5.00000000E-01
                       3.00000000E-01  3.00000000E-01  7.00000000E-01
                       3.00000000E-01  5.00000000E-01  5.00000000E-01
                       3.00000000E-01  5.00000000E-01  7.00000000E-01
                       5.00000000E-01  5.00000000E-01  5.00000000E-01
           kptopt           0
P           mkmem          19
            natom           2
            nband          36
           nbdbuf           4
            ngfft          30      30      30
             nkpt          19
             nsym          48
           ntypat           1
              occ      2.000000  2.000000  2.000000  2.000000  0.000000  0.000000
                       0.000000  0.000000  0.000000  0.000000  0.000000  0.000000
                       0.000000  0.000000  0.000000  0.000000  0.000000  0.000000
                       0.000000  0.000000  0.000000  0.000000  0.000000  0.000000
                       0.000000  0.000000  0.000000  0.000000  0.000000  0.000000
                       0.000000  0.000000  0.000000  0.000000  0.000000  0.000000
           prtden           0
            rprim      0.0000000000E+00  5.0000000000E-01  5.0000000000E-01
                       5.0000000000E-01  0.0000000000E+00  5.0000000000E-01
                       5.0000000000E-01  5.0000000000E-01  0.0000000000E+00
          spgroup         227
           symrel      1  0  0   0  1  0   0  0  1      -1  0  0   0 -1  0   0  0 -1
                       0 -1  1   0 -1  0   1 -1  0       0  1 -1   0  1  0  -1  1  0
                      -1  0  0  -1  0  1  -1  1  0       1  0  0   1  0 -1   1 -1  0
                       0  1 -1   1  0 -1   0  0 -1       0 -1  1  -1  0  1   0  0  1
                      -1  0  0  -1  1  0  -1  0  1       1  0  0   1 -1  0   1  0 -1
                       0 -1  1   1 -1  0   0 -1  0       0  1 -1  -1  1  0   0  1  0
                       1  0  0   0  0  1   0  1  0      -1  0  0   0  0 -1   0 -1  0
                       0  1 -1   0  0 -1   1  0 -1       0 -1  1   0  0  1  -1  0  1
                      -1  0  1  -1  1  0  -1  0  0       1  0 -1   1 -1  0   1  0  0
                       0 -1  0   1 -1  0   0 -1  1       0  1  0  -1  1  0   0  1 -1
                       1  0 -1   0  0 -1   0  1 -1      -1  0  1   0  0  1   0 -1  1
                       0  1  0   0  0  1   1  0  0       0 -1  0   0  0 -1  -1  0  0
                       1  0 -1   0  1 -1   0  0 -1      -1  0  1   0 -1  1   0  0  1
                       0 -1  0   0 -1  1   1 -1  0       0  1  0   0  1 -1  -1  1  0
                      -1  0  1  -1  0  0  -1  1  0       1  0 -1   1  0  0   1 -1  0
                       0  1  0   1  0  0   0  0  1       0 -1  0  -1  0  0   0  0 -1
                       0  0 -1   0  1 -1   1  0 -1       0  0  1   0 -1  1  -1  0  1
                       1 -1  0   0 -1  1   0 -1  0      -1  1  0   0  1 -1   0  1  0
                       0  0  1   1  0  0   0  1  0       0  0 -1  -1  0  0   0 -1  0
                      -1  1  0  -1  0  0  -1  0  1       1 -1  0   1  0  0   1  0 -1
                       0  0  1   0  1  0   1  0  0       0  0 -1   0 -1  0  -1  0  0
                       1 -1  0   0 -1  0   0 -1  1      -1  1  0   0  1  0   0  1 -1
                       0  0 -1   1  0 -1   0  1 -1       0  0  1  -1  0  1   0 -1  1
                      -1  1  0  -1  0  1  -1  0  0       1 -1  0   1  0 -1   1  0  0
            tnons      0.0000000  0.0000000  0.0000000     0.0000000  0.0000000  0.0000000
                       0.0000000  0.5000000  0.0000000     0.0000000  0.5000000  0.0000000
                       0.5000000  0.0000000  0.0000000     0.5000000  0.0000000  0.0000000
                       0.0000000  0.0000000  0.5000000     0.0000000  0.0000000  0.5000000
                       0.5000000  0.0000000  0.0000000     0.5000000  0.0000000  0.0000000
                       0.0000000  0.5000000  0.0000000     0.0000000  0.5000000  0.0000000
                       0.0000000  0.0000000  0.0000000     0.0000000  0.0000000  0.0000000
                       0.0000000  0.0000000  0.5000000     0.0000000  0.0000000  0.5000000
                       0.5000000  0.0000000  0.0000000     0.5000000  0.0000000  0.0000000
                       0.0000000  0.5000000  0.0000000     0.0000000  0.5000000  0.0000000
                       0.0000000  0.0000000  0.5000000     0.0000000  0.0000000  0.5000000
                       0.0000000  0.0000000  0.0000000     0.0000000  0.0000000  0.0000000
                       0.0000000  0.0000000  0.5000000     0.0000000  0.0000000  0.5000000
                       0.0000000  0.5000000  0.0000000     0.0000000  0.5000000  0.0000000
                       0.5000000  0.0000000  0.0000000     0.5000000  0.0000000  0.0000000
                       0.0000000  0.0000000  0.0000000     0.0000000  0.0000000  0.0000000
                       0.0000000  0.0000000  0.5000000     0.0000000  0.0000000  0.5000000
                       0.0000000  0.5000000  0.0000000     0.0000000  0.5000000  0.0000000
                       0.0000000  0.0000000  0.0000000     0.0000000  0.0000000  0.0000000
                       0.5000000  0.0000000  0.0000000     0.5000000  0.0000000  0.0000000
                       0.0000000  0.0000000  0.0000000     0.0000000  0.0000000  0.0000000
                       0.0000000  0.5000000  0.0000000     0.0000000  0.5000000  0.0000000
                       0.0000000  0.0000000  0.5000000     0.0000000  0.0000000  0.5000000
                       0.5000000  0.0000000  0.0000000     0.5000000  0.0000000  0.0000000
           tolwfr      1.00000000E-13
            typat      1  1
              wtk        0.01600    0.04800    0.04800    0.04800    0.04800    0.04800
                         0.09600    0.09600    0.09600    0.04800    0.09600    0.04800
                         0.04800    0.01600    0.04800    0.04800    0.04800    0.04800
                         0.00800
           xangst     -6.7874914660E-01 -6.7874914660E-01 -6.7874914660E-01
                       6.7874914660E-01  6.7874914660E-01  6.7874914660E-01
            xcart     -1.2826500000E+00 -1.2826500000E+00 -1.2826500000E+00
                       1.2826500000E+00  1.2826500000E+00  1.2826500000E+00
             xred     -1.2500000000E-01 -1.2500000000E-01 -1.2500000000E-01
                       1.2500000000E-01  1.2500000000E-01  1.2500000000E-01
            znucl       14.00000
 
================================================================================


- Timing analysis has been suppressed with timopt=0



================================================================================

 Suggested references for the acknowledgment of ABINIT usage.

 The users of ABINIT have little formal obligations with respect to the ABINIT group
 (those specified in the GNU General Public License, http://www.gnu.org/copyleft/gpl.txt).
 However, it is common practice in the scientific literature,
 to acknowledge the efforts of people that have made the research possible.
 In this spirit, please find below suggested citations of work written by ABINIT developers,
 corresponding to implementations inside of ABINIT that you have used in the present run.
 Note also that it will be of great value to readers of publications presenting these results,
 to read papers enabling them to understand the theoretical formalism and details
 of the ABINIT implementation.
 For information on why they are suggested, see also http://www.abinit.org/about/?text=acknowledgments.

 [1] Ab initio pseudopotentials for electronic structure calculations of poly-atomic systems, 
 using density-functional theory.
 M. Fuchs, M. Scheffler, Comput. Phys. Commun. 119, 67 (1999).
 Comment : Some pseudopotential generated using the FHI code were used.

 [2] ABINIT : First-principles approach of materials and nanosystem properties.
 X. Gonze, B. Amadon, P.-M. Anglade, J.-M. Beuken, F. Bottin, P. Boulanger, F. Bruneval,
 D. Caliste, R. Caracas, M. Cote, T. Deutsch, L. Genovese, Ph. Ghosez, M. Giantomassi
 S. Goedecker, D.R. Hamann, P. Hermet, F. Jollet, G. Jomard, S. Leroux, M. Mancini, S. Mazevet,
 M.J.T. Oliveira, G. Onida, Y. Pouillon, T. Rangel, G.-M. Rignanese, D. Sangalli, R. Shaltaf,
 M. Torrent, M.J. Verstraete, G. Zerah, J.W. Zwanziger
 Computer Phys. Comm. 180, 2582-2615 (2009).
 Comment : the third generic paper describing the ABINIT project.
 Note that a version of this paper, that is not formatted for Computer Phys. Comm. 
 is available at http://www.abinit.org/about/ABINIT_CPC_v10.pdf .
 The licence allows the authors to put it on the Web.

 [3] A brief introduction to the ABINIT software package.
 X. Gonze, G.-M. Rignanese, M. Verstraete, J.-M. Beuken, Y. Pouillon, R. Caracas, F. Jollet,
 M. Torrent, G. Zerah, M. Mikami, Ph. Ghosez, M. Veithen, J.-Y. Raty, V. Olevano, F. Bruneval,
 L. Reining, R. Godby, G. Onida, D.R. Hamann, and D.C. Allan.
 Z. Kristallogr. 220, 558-562 (2005).
 Comment : the second generic paper describing the ABINIT project. Note that this paper
 should be cited especially if you are using the GW part of ABINIT, as several authors
 of this part are not in the list of authors of the first or third paper.
 The .pdf of the latter paper is available at http://www.abinit.org/about/zfk_0505-06_558-562.pdf.
 Note that it should not redistributed (Copyright by Oldenburg Wissenshaftverlag,
 the licence allows the authors to put it on the Web).


 And optionally :

 [4] First-principles computation of material properties : the ABINIT software project. 
 X. Gonze, J.-M. Beuken, R. Caracas, F. Detraux, M. Fuchs, G.-M. Rignanese, L. Sindic,
 M. Verstraete, G. Zerah, F. Jollet, M. Torrent, A. Roy, M. Mikami, Ph. Ghosez, J.-Y. Raty, D.C. Allan.
 Computational Materials Science 25, 478-492 (2002). http://dx.doi.org/10.1016/S0927-0256(02)00325-7
 Comment : the original paper describing the ABINIT project.

 [5] Fast radix 2, 3, 4 and 5 kernels for Fast Fourier Transformations
 on computers with overlapping multiply-add instructions.
 S. Goedecker, SIAM J. on Scientific Computing 18, 1605 (1997).
-
- Proc.   0 individual time (sec): cpu=         16.2  wall=         16.4
 
================================================================================
 
 Calculation completed.
.Delivered    5 WARNINGs and   0 COMMENTs to log file.
+Overall time at end (sec) : cpu=         16.2  wall=         16.4
