
             +---------------------------------------------------+
             |                                                   |
             |                   WANNIER90                       |
             |                                                   |
             +---------------------------------------------------+
             |                                                   |
             |        Welcome to the Maximally-Localized         |
             |        Generalized Wannier Functions code         |
             |            http://www.wannier.org                 |
             |                                                   |
             |  Wannier90 v2.0 Authors:                          |
             |    Arash A. Mostofi  (Imperial College London)    |
             |    Giovanni Pizzi    (EPFL)                       |
             |    Ivo Souza         (Universidad del Pais Vasco) |
             |    Jonathan R. Yates (University of Oxford)       |
             |                                                   |
             |  Wannier90 Contributors:                          |
             |    Young-Su Lee       (KIST, S. Korea)            |
             |    Matthew Shelley    (Imperial College London)   |
             |    Nicolas Poilvert   (Penn State University)     |
             |    Raffaello Bianco   (Paris 6 and CNRS)          |
             |    Gabriele Sclauzero (ETH Zurich)                |
             |                                                   |
             |  Wannier77 Authors:                               |
             |    Nicola Marzari    (EPFL)                       |
             |    Ivo Souza         (Universidad del Pais Vasco) |
             |    David Vanderbilt  (Rutgers University)         |
             |                                                   |
             |  Please cite                                      |
             |                                                   |
             |  [ref] "Wannier90: A Tool for Obtaining Maximally |
             |         Localised Wannier Functions"              |
             |        A. A. Mostofi, J. R. Yates, Y.-S. Lee,     |
             |        I. Souza, D. Vanderbilt and N. Marzari     |
             |        Comput. Phys. Commun. 178, 685 (2008)      |
             |                                                   |
             |  in any publications arising from the use of      |
             |  this code. For the method please cite            |
             |                                                   |
             |  [ref] "Maximally Localized Generalised Wannier   |
             |         Functions for Composite Energy Bands"     |
             |         N. Marzari and D. Vanderbilt              |
             |         Phys. Rev. B 56 12847 (1997)              |
             |                                                   |
             |  [ref] "Maximally Localized Wannier Functions     |
             |         for Entangled Energy Bands"               |
             |         I. Souza, N. Marzari and D. Vanderbilt    |
             |         Phys. Rev. B 65 035109 (2001)             |
             |                                                   |
             |                                                   |
             | Copyright (c) 1996-2015                           |
             |        Arash A. Mostofi, Jonathan R. Yates,       |
             |        Young-Su Lee, Giovanni Pizzi, Ivo Souza,   |
             |        David Vanderbilt and Nicola Marzari        |
             |                                                   |
             |        Release: 2.0.1   2nd April 2015            |
             |                                                   |
             | This program is free software; you can            |
             | redistribute it and/or modify it under the terms  |
             | of the GNU General Public License as published by |
             | the Free Software Foundation; either version 2 of |
             | the License, or (at your option) any later version|
             |                                                   |
             | This program is distributed in the hope that it   |
             | will be useful, but WITHOUT ANY WARRANTY; without |
             | even the implied warranty of MERCHANTABILITY or   |
             | FITNESS FOR A PARTICULAR PURPOSE. See the GNU     |
             | General Public License for more details.          |
             |                                                   |
             | You should have received a copy of the GNU General|
             | Public License along with this program; if not,   |
             | write to the Free Software Foundation, Inc.,      |
             | 675 Mass Ave, Cambridge, MA 02139, USA.           |
             |                                                   |
             +---------------------------------------------------+
             |    Execution started on 15Apr2016 at 15:49:56     |
             +---------------------------------------------------+
 
 ******************************************************************************
 * -> Using CODATA 2006 constant values                                       *
 *    (http://physics.nist.gov/cuu/Constants/index.html)                      *
 * -> Using Bohr value from CODATA                                            *
 ******************************************************************************
 

                                    ------
                                    SYSTEM
                                    ------

                              Lattice Vectors (Ang)
                    a_1     0.000000   2.714997   2.714997
                    a_2     2.714997   0.000000   2.714997
                    a_3     2.714997   2.714997   0.000000

                   Unit Cell Volume:      40.02560  (Ang^3)

                        Reciprocal-Space Vectors (Ang^-1)
                    b_1    -1.157126   1.157126   1.157126
                    b_2     1.157126  -1.157126   1.157126
                    b_3     1.157126   1.157126  -1.157126
  
 *----------------------------------------------------------------------------*
 |   Site       Fractional Coordinate          Cartesian Coordinate (Ang)     |
 +----------------------------------------------------------------------------+
 | Si   1  -0.12500  -0.12500  -0.12500   |   -0.67875  -0.67875  -0.67875    |
 | Si   2   0.12500   0.12500   0.12500   |    0.67875   0.67875   0.67875    |
 *----------------------------------------------------------------------------*
  
                                ------------
                                K-POINT GRID
                                ------------
  
             Grid size =  5 x  5 x  5      Total points =  125
  
  
 *---------------------------------- MAIN ------------------------------------*
 |  Number of Wannier Functions               :                 8             |
 |  Number of input Bloch states              :                12             |
 |  Output verbosity (1=low, 5=high)          :                 1             |
 |  Timing Level (1=low, 5=high)              :                 1             |
 |  Optimisation (0=memory, 3=speed)          :                 3             |
 |  Length Unit                               :               Ang             |
 |  Post-processing setup (write *.nnkp)      :                 F             |
 |  Using Gamma-only branch of algorithms     :                 F             |
 *----------------------------------------------------------------------------*
 *------------------------------- WANNIERISE ---------------------------------*
 |  Total number of iterations                :               100             |
 |  Number of CG steps before reset           :                 5             |
 |  Trial step length for line search         :             2.000             |
 |  Convergence tolerence                     :         0.100E-09             |
 |  Convergence window                        :                -1             |
 |  Iterations between writing output         :                 1             |
 |  Iterations between backing up to disk     :               100             |
 |  Write r^2_nm to file                      :                 F             |
 |  Write xyz WF centres to file              :                 F             |
 |  Write on-site energies <0n|H|0n> to file  :                 F             |
 |  Use guiding centre to control phases      :                 F             |
 |  Use phases for initial projections        :                 F             |
 *----------------------------------------------------------------------------*
 *------------------------------- DISENTANGLE --------------------------------*
 |  Using band disentanglement                :                 T             |
 |  Total number of iterations                :               200             |
 |  Mixing ratio                              :             0.500             |
 |  Convergence tolerence                     :         1.000E-10             |
 |  Convergence window                        :                 3             |
 *----------------------------------------------------------------------------*
 *-------------------------------- PLOTTING ----------------------------------*
 |  Plotting interpolated bandstructure       :                 T             |
 |   Number of K-path sections                :                 4             |
 |   Divisions along first K-path section     :               100             |
 |   Output format                            :           gnuplot             |
 |   Output mode                              :               s-k             |
 *----------------------------------------------------------------------------*
 |   K-space path sections:                                                   |
 |    From:  L    0.500  0.500  0.500     To:  G    0.000  0.000  0.000       |
 |    From:  G    0.000  0.000  0.000     To:  X    0.500  0.000  0.500       |
 |    From:  X    0.500 -0.500  0.000     To:  K    0.375 -0.375  0.000       |
 |    From:  K    0.375 -0.375  0.000     To:  G    0.000  0.000  0.000       |
 *----------------------------------------------------------------------------*
 Time to read parameters        0.008 (sec)

 *---------------------------------- K-MESH ----------------------------------*
 +----------------------------------------------------------------------------+
 |                    Distance to Nearest-Neighbour Shells                    |
 |                    ------------------------------------                    |
 |          Shell             Distance (Ang^-1)          Multiplicity         |
 |          -----             -----------------          ------------         |
 |             1                   0.400840                      8            |
 |             2                   0.462850                      6            |
 |             3                   0.654569                     12            |
 |             4                   0.767550                     24            |
 |             5                   0.801680                      8            |
 |             6                   0.925701                      6            |
 |             7                   1.008759                     24            |
 |             8                   1.034965                     24            |
 |             9                   1.133747                     24            |
 |            10                   1.202520                     32            |
 |            11                   1.309138                     12            |
 |            12                   1.369130                     48            |
 +----------------------------------------------------------------------------+
 | The b-vectors are chosen automatically                                     |
 | The following shells are used:   1                                         |
 +----------------------------------------------------------------------------+
 |                        Shell   # Nearest-Neighbours                        |
 |                        -----   --------------------                        |
 |                          1               8                                 |
 +----------------------------------------------------------------------------+
 | Completeness relation is fully satisfied [Eq. (B1), PRB 56, 12847 (1997)]  |
 +----------------------------------------------------------------------------+
 |                  b_k Vectors (Ang^-1) and Weights (Ang^2)                  |
 |                  ----------------------------------------                  |
 |            No.         b_k(x)      b_k(y)      b_k(z)        w_b           |
 |            ---        --------------------------------     --------        |
 |             1         0.231425    0.231425   -0.231425     2.333936        |
 |             2         0.231425   -0.231425    0.231425     2.333936        |
 |             3        -0.231425    0.231425    0.231425     2.333936        |
 |             4         0.231425    0.231425    0.231425     2.333936        |
 |             5        -0.231425   -0.231425    0.231425     2.333936        |
 |             6        -0.231425    0.231425   -0.231425     2.333936        |
 |             7         0.231425   -0.231425   -0.231425     2.333936        |
 |             8        -0.231425   -0.231425   -0.231425     2.333936        |
 +----------------------------------------------------------------------------+
 |                           b_k Directions (Ang^-1)                          |
 |                           -----------------------                          |
 |            No.           x           y           z                         |
 |            ---        --------------------------------                     |
 |             1         0.231425    0.231425   -0.231425                     |
 |             2         0.231425   -0.231425    0.231425                     |
 |             3        -0.231425    0.231425    0.231425                     |
 |             4         0.231425    0.231425    0.231425                     |
 +----------------------------------------------------------------------------+
  
 *============================================================================*
 |                              MEMORY ESTIMATE                               |
 |         Maximum RAM allocated during each phase of the calculation         |
 *============================================================================*
 |                        Disentanglement            3.75 Mb                  |
 |                            Wannierise:            3.00 Mb                  |
 *----------------------------------------------------------------------------*
  
 Starting a new Wannier90 calculation ...

 Time to get kmesh              0.100 (sec)

 Reading overlaps from silicon.mmn    :  Created on 25Mar2016 at 18: 4:27

 Reading projections from silicon.amn :  Created on 25Mar2016 at 18: 4:26

 Time to read overlaps          0.164 (sec)

 *------------------------------- DISENTANGLE --------------------------------*
 +----------------------------------------------------------------------------+
 |                              Energy  Windows                               |
 |                              ---------------                               |
 |                   Outer:   -6.35418  to   20.97275  (eV)                   |
 |                   Inner:   -6.35418  to   12.67000  (eV)                   |
 +----------------------------------------------------------------------------+
   Number of target bands to extract:    8

                   Unitarised projection of Wannier functions                  
                   ------------------------------------------                  
   A_mn = <psi_m|g_n> --> S = A.A^+ --> U = S^-1/2.A
   In dis_project... done
   Using an inner window (linner = T)
   In dis_proj_froz... done

                   Extraction of optimally-connected subspace                  
                   ------------------------------------------                  
 +---------------------------------------------------------------------+<-- DIS
 |  Iter     Omega_I(i-1)      Omega_I(i)      Delta (frac.)    Time   |<-- DIS
 +---------------------------------------------------------------------+<-- DIS
       1      16.22266937      15.96177490       1.634E-02      0.28    <-- DIS
       2      15.97015768      15.90020146       4.400E-03      0.29    <-- DIS
       3      15.93554503      15.87561883       3.775E-03      0.29    <-- DIS
       4      15.90537536      15.86287977       2.679E-03      0.29    <-- DIS
       5      15.88499984      15.85621146       1.816E-03      0.30    <-- DIS
       6      15.87176724      15.85271327       1.202E-03      0.30    <-- DIS
       7      15.86335183      15.85087716       7.870E-04      0.30    <-- DIS
       8      15.85805956      15.84991302       5.140E-04      0.30    <-- DIS
       9      15.85474441      15.84940642       3.368E-04      0.31    <-- DIS
      10      15.85266399      15.84913996       2.223E-04      0.31    <-- DIS
      11      15.85135002      15.84899964       1.483E-04      0.32    <-- DIS
      12      15.85051176      15.84892563       1.001E-04      0.32    <-- DIS
      13      15.84997014      15.84888653       6.837E-05      0.32    <-- DIS
      14      15.84961510      15.84886583       4.728E-05      0.32    <-- DIS
      15      15.84937880      15.84885485       3.306E-05      0.32    <-- DIS
      16      15.84921913      15.84884901       2.335E-05      0.33    <-- DIS
      17      15.84910966      15.84884590       1.664E-05      0.33    <-- DIS
      18      15.84903363      15.84884423       1.195E-05      0.34    <-- DIS
      19      15.84898020      15.84884334       8.635E-06      0.34    <-- DIS
      20      15.84894228      15.84884287       6.273E-06      0.34    <-- DIS
      21      15.84891513      15.84884261       4.576E-06      0.34    <-- DIS
      22      15.84889557      15.84884247       3.350E-06      0.34    <-- DIS
      23      15.84888138      15.84884239       2.460E-06      0.35    <-- DIS
      24      15.84887105      15.84884235       1.811E-06      0.35    <-- DIS
      25      15.84886349      15.84884233       1.335E-06      0.36    <-- DIS
      26      15.84885795      15.84884232       9.864E-07      0.36    <-- DIS
      27      15.84885388      15.84884231       7.297E-07      0.36    <-- DIS
      28      15.84885087      15.84884231       5.405E-07      0.36    <-- DIS
      29      15.84884866      15.84884231       4.008E-07      0.36    <-- DIS
      30      15.84884702      15.84884230       2.975E-07      0.37    <-- DIS
      31      15.84884581      15.84884230       2.210E-07      0.37    <-- DIS
      32      15.84884491      15.84884230       1.643E-07      0.38    <-- DIS
      33      15.84884424      15.84884230       1.222E-07      0.38    <-- DIS
      34      15.84884375      15.84884230       9.100E-08      0.38    <-- DIS
      35      15.84884338      15.84884230       6.779E-08      0.38    <-- DIS
      36      15.84884310      15.84884230       5.053E-08      0.38    <-- DIS
      37      15.84884290      15.84884230       3.768E-08      0.39    <-- DIS
      38      15.84884275      15.84884230       2.812E-08      0.39    <-- DIS
      39      15.84884264      15.84884230       2.099E-08      0.40    <-- DIS
      40      15.84884255      15.84884230       1.568E-08      0.40    <-- DIS
      41      15.84884249      15.84884230       1.172E-08      0.40    <-- DIS
      42      15.84884244      15.84884230       8.762E-09      0.40    <-- DIS
      43      15.84884241      15.84884230       6.554E-09      0.40    <-- DIS
      44      15.84884238      15.84884230       4.904E-09      0.41    <-- DIS
      45      15.84884236      15.84884230       3.671E-09      0.41    <-- DIS
      46      15.84884235      15.84884230       2.749E-09      0.42    <-- DIS
      47      15.84884234      15.84884230       2.060E-09      0.42    <-- DIS
      48      15.84884233      15.84884230       1.544E-09      0.42    <-- DIS
      49      15.84884232      15.84884230       1.157E-09      0.42    <-- DIS
      50      15.84884232      15.84884230       8.678E-10      0.42    <-- DIS
      51      15.84884231      15.84884230       6.510E-10      0.43    <-- DIS
      52      15.84884231      15.84884230       4.885E-10      0.43    <-- DIS
      53      15.84884231      15.84884230       3.667E-10      0.44    <-- DIS
      54      15.84884231      15.84884230       2.753E-10      0.44    <-- DIS
      55      15.84884231      15.84884230       2.068E-10      0.44    <-- DIS
      56      15.84884231      15.84884230       1.553E-10      0.44    <-- DIS
      57      15.84884230      15.84884230       1.167E-10      0.45    <-- DIS
      58      15.84884230      15.84884230       8.773E-11      0.45    <-- DIS
      59      15.84884230      15.84884230       6.595E-11      0.45    <-- DIS
      60      15.84884230      15.84884230       4.959E-11      0.46    <-- DIS

             <<<      Delta < 1.000E-10  over  3 iterations     >>>
             <<< Disentanglement convergence criteria satisfied >>>

        Final Omega_I    15.84884230 (Ang^2)

 +----------------------------------------------------------------------------+

 Time to disentangle bands      0.192 (sec)

 Writing checkpoint file silicon.chk... done


 *------------------------------- WANNIERISE ---------------------------------*
 +--------------------------------------------------------------------+<-- CONV
 | Iter  Delta Spread     RMS Gradient      Spread (Ang^2)      Time  |<-- CONV
 +--------------------------------------------------------------------+<-- CONV

 ------------------------------------------------------------------------------
 Initial State
  WF centre and spread    1  ( -0.437962, -0.437962, -0.437962 )     3.11288340
  WF centre and spread    2  ( -0.437962, -0.919536, -0.919536 )     3.11288339
  WF centre and spread    3  ( -0.919536, -0.437962, -0.919536 )     3.11288340
  WF centre and spread    4  ( -0.919536, -0.919536, -0.437962 )     3.11288338
  WF centre and spread    5  (  1.105834,  1.105834,  1.105834 )     2.82202224
  WF centre and spread    6  (  1.105834,  0.251664,  0.251664 )     2.82202224
  WF centre and spread    7  (  0.251664,  1.105834,  0.251664 )     2.82202242
  WF centre and spread    8  (  0.251664,  0.251664,  1.105834 )     2.82202241
  Sum of centres and spreads (  0.000000, -0.000000,  0.000000 )    23.73962289

      0     0.237E+02     0.0000000000       23.7396228871       0.47  <-- CONV
        O_D=      0.2945651 O_OD=      7.5962155 O_TOT=     23.7396229 <-- SPRD
 ------------------------------------------------------------------------------
 Cycle:      1
  WF centre and spread    1  ( -0.443333, -0.443333, -0.443333 )     3.07133278
  WF centre and spread    2  ( -0.443333, -0.914165, -0.914165 )     3.07133277
  WF centre and spread    3  ( -0.914165, -0.443333, -0.914165 )     3.07133279
  WF centre and spread    4  ( -0.914165, -0.914165, -0.443333 )     3.07133277
  WF centre and spread    5  (  1.120676,  1.120676,  1.120676 )     2.74377983
  WF centre and spread    6  (  1.120676,  0.236822,  0.236823 )     2.74377982
  WF centre and spread    7  (  0.236823,  1.120676,  0.236823 )     2.74378002
  WF centre and spread    8  (  0.236823,  0.236822,  1.120676 )     2.74378002
  Sum of centres and spreads (  0.000000, -0.000000,  0.000000 )    23.26045081

      1    -0.479E+00     0.5361907575       23.2604508057       0.48  <-- CONV
        O_D=      0.2976186 O_OD=      7.1139899 O_TOT=     23.2604508 <-- SPRD
 Delta: O_D=  0.3053542E-02 O_OD= -0.4822256E+00 O_TOT= -0.4791721E+00 <-- DLTA
 ------------------------------------------------------------------------------
 Cycle:      2
  WF centre and spread    1  ( -0.448032, -0.448032, -0.448032 )     3.06054276
  WF centre and spread    2  ( -0.448032, -0.909467, -0.909467 )     3.06054276
  WF centre and spread    3  ( -0.909466, -0.448032, -0.909466 )     3.06054281
  WF centre and spread    4  ( -0.909466, -0.909466, -0.448032 )     3.06054279
  WF centre and spread    5  (  1.131551,  1.131551,  1.131551 )     2.69866424
  WF centre and spread    6  (  1.131551,  0.225948,  0.225948 )     2.69866424
  WF centre and spread    7  (  0.225948,  1.131551,  0.225948 )     2.69866446
  WF centre and spread    8  (  0.225948,  0.225948,  1.131551 )     2.69866445
  Sum of centres and spreads (  0.000000, -0.000000,  0.000000 )    23.03682852

      2    -0.224E+00     0.3505728286       23.0368285186       0.49  <-- CONV
        O_D=      0.3309064 O_OD=      6.8570798 O_TOT=     23.0368285 <-- SPRD
 Delta: O_D=  0.3328781E-01 O_OD= -0.2569101E+00 O_TOT= -0.2236223E+00 <-- DLTA
 ------------------------------------------------------------------------------
 Cycle:      3
  WF centre and spread    1  ( -0.449060, -0.449060, -0.449060 )     3.05698802
  WF centre and spread    2  ( -0.449060, -0.908438, -0.908438 )     3.05698801
  WF centre and spread    3  ( -0.908438, -0.449060, -0.908438 )     3.05698811
  WF centre and spread    4  ( -0.908438, -0.908438, -0.449060 )     3.05698808
  WF centre and spread    5  (  1.135556,  1.135556,  1.135556 )     2.67631397
  WF centre and spread    6  (  1.135556,  0.221942,  0.221942 )     2.67631396
  WF centre and spread    7  (  0.221942,  1.135556,  0.221942 )     2.67631419
  WF centre and spread    8  (  0.221942,  0.221942,  1.135556 )     2.67631418
  Sum of centres and spreads (  0.000001, -0.000000,  0.000000 )    22.93320853

      3    -0.104E+00     0.2949209561       22.9332085348       0.50  <-- CONV
        O_D=      0.3401277 O_OD=      6.7442385 O_TOT=     22.9332085 <-- SPRD
 Delta: O_D=  0.9221269E-02 O_OD= -0.1128413E+00 O_TOT= -0.1036200E+00 <-- DLTA
 ------------------------------------------------------------------------------
 Cycle:      4
  WF centre and spread    1  ( -0.448375, -0.448375, -0.448375 )     3.05501642
  WF centre and spread    2  ( -0.448375, -0.909123, -0.909123 )     3.05501641
  WF centre and spread    3  ( -0.909123, -0.448375, -0.909123 )     3.05501654
  WF centre and spread    4  ( -0.909123, -0.909123, -0.448375 )     3.05501650
  WF centre and spread    5  (  1.136161,  1.136161,  1.136161 )     2.67112640
  WF centre and spread    6  (  1.136161,  0.221338,  0.221338 )     2.67112640
  WF centre and spread    7  (  0.221338,  1.136161,  0.221338 )     2.67112664
  WF centre and spread    8  (  0.221338,  0.221338,  1.136161 )     2.67112662
  Sum of centres and spreads (  0.000001, -0.000000,  0.000000 )    22.90457193

      4    -0.286E-01     0.1754279693       22.9045719330       0.51  <-- CONV
        O_D=      0.3414499 O_OD=      6.7142797 O_TOT=     22.9045719 <-- SPRD
 Delta: O_D=  0.1322219E-02 O_OD= -0.2995882E-01 O_TOT= -0.2863660E-01 <-- DLTA
 ------------------------------------------------------------------------------
 Cycle:      5
  WF centre and spread    1  ( -0.447768, -0.447768, -0.447768 )     3.05394683
  WF centre and spread    2  ( -0.447768, -0.909730, -0.909730 )     3.05394683
  WF centre and spread    3  ( -0.909730, -0.447768, -0.909730 )     3.05394697
  WF centre and spread    4  ( -0.909730, -0.909730, -0.447768 )     3.05394694
  WF centre and spread    5  (  1.136318,  1.136317,  1.136317 )     2.67036445
  WF centre and spread    6  (  1.136318,  0.221181,  0.221181 )     2.67036444
  WF centre and spread    7  (  0.221181,  1.136317,  0.221181 )     2.67036468
  WF centre and spread    8  (  0.221181,  0.221181,  1.136317 )     2.67036467
  Sum of centres and spreads (  0.000001, -0.000000,  0.000000 )    22.89724581

      5    -0.733E-02     0.0873739661       22.8972458123       0.52  <-- CONV
        O_D=      0.3416900 O_OD=      6.7067135 O_TOT=     22.8972458 <-- SPRD
 Delta: O_D=  0.2401389E-03 O_OD= -0.7566260E-02 O_TOT= -0.7326121E-02 <-- DLTA
 ------------------------------------------------------------------------------
 Cycle:      6
  WF centre and spread    1  ( -0.447522, -0.447523, -0.447522 )     3.05394123
  WF centre and spread    2  ( -0.447522, -0.909976, -0.909976 )     3.05394123
  WF centre and spread    3  ( -0.909976, -0.447523, -0.909976 )     3.05394140
  WF centre and spread    4  ( -0.909976, -0.909976, -0.447523 )     3.05394136
  WF centre and spread    5  (  1.136407,  1.136407,  1.136407 )     2.66991899
  WF centre and spread    6  (  1.136407,  0.221092,  0.221092 )     2.66991899
  WF centre and spread    7  (  0.221092,  1.136407,  0.221092 )     2.66991923
  WF centre and spread    8  (  0.221092,  0.221092,  1.136407 )     2.66991922
  Sum of centres and spreads (  0.000001, -0.000000,  0.000000 )    22.89544164

      6    -0.180E-02     0.0424713264       22.8954416357       0.53  <-- CONV
        O_D=      0.3415884 O_OD=      6.7050109 O_TOT=     22.8954416 <-- SPRD
 Delta: O_D= -0.1016245E-03 O_OD= -0.1702552E-02 O_TOT= -0.1804177E-02 <-- DLTA
 ------------------------------------------------------------------------------
 Cycle:      7
  WF centre and spread    1  ( -0.447576, -0.447576, -0.447576 )     3.05463732
  WF centre and spread    2  ( -0.447576, -0.909922, -0.909922 )     3.05463732
  WF centre and spread    3  ( -0.909922, -0.447577, -0.909922 )     3.05463750
  WF centre and spread    4  ( -0.909922, -0.909922, -0.447577 )     3.05463746
  WF centre and spread    5  (  1.136424,  1.136424,  1.136424 )     2.66911301
  WF centre and spread    6  (  1.136424,  0.221074,  0.221074 )     2.66911301
  WF centre and spread    7  (  0.221074,  1.136424,  0.221074 )     2.66911325
  WF centre and spread    8  (  0.221074,  0.221074,  1.136424 )     2.66911324
  Sum of centres and spreads (  0.000001, -0.000000,  0.000000 )    22.89500213

      7    -0.440E-03     0.0218172773       22.8950021257       0.54  <-- CONV
        O_D=      0.3414458 O_OD=      6.7047141 O_TOT=     22.8950021 <-- SPRD
 Delta: O_D= -0.1426651E-03 O_OD= -0.2968449E-03 O_TOT= -0.4395101E-03 <-- DLTA
 ------------------------------------------------------------------------------
 Cycle:      8
  WF centre and spread    1  ( -0.447634, -0.447634, -0.447634 )     3.05628254
  WF centre and spread    2  ( -0.447634, -0.909864, -0.909864 )     3.05628253
  WF centre and spread    3  ( -0.909864, -0.447634, -0.909864 )     3.05628274
  WF centre and spread    4  ( -0.909864, -0.909864, -0.447634 )     3.05628270
  WF centre and spread    5  (  1.136459,  1.136459,  1.136459 )     2.66740125
  WF centre and spread    6  (  1.136459,  0.221040,  0.221040 )     2.66740125
  WF centre and spread    7  (  0.221040,  1.136459,  0.221040 )     2.66740149
  WF centre and spread    8  (  0.221040,  0.221040,  1.136459 )     2.66740148
  Sum of centres and spreads (  0.000001, -0.000000,  0.000000 )    22.89473597

      8    -0.266E-03     0.0136202352       22.8947359731       0.55  <-- CONV
        O_D=      0.3412560 O_OD=      6.7046377 O_TOT=     22.8947360 <-- SPRD
 Delta: O_D= -0.1898016E-03 O_OD= -0.7635100E-04 O_TOT= -0.2661526E-03 <-- DLTA
 ------------------------------------------------------------------------------
 Cycle:      9
  WF centre and spread    1  ( -0.447667, -0.447667, -0.447667 )     3.05818206
  WF centre and spread    2  ( -0.447667, -0.909831, -0.909831 )     3.05818205
  WF centre and spread    3  ( -0.909831, -0.447667, -0.909831 )     3.05818229
  WF centre and spread    4  ( -0.909831, -0.909831, -0.447667 )     3.05818225
  WF centre and spread    5  (  1.136468,  1.136468,  1.136468 )     2.66546752
  WF centre and spread    6  (  1.136468,  0.221030,  0.221030 )     2.66546751
  WF centre and spread    7  (  0.221030,  1.136468,  0.221030 )     2.66546775
  WF centre and spread    8  (  0.221030,  0.221030,  1.136468 )     2.66546774
  Sum of centres and spreads (  0.000001, -0.000000,  0.000000 )    22.89459918

      9    -0.137E-03     0.0103249869       22.8945991829       0.56  <-- CONV
        O_D=      0.3411542 O_OD=      6.7046026 O_TOT=     22.8945992 <-- SPRD
 Delta: O_D= -0.1017062E-03 O_OD= -0.3508397E-04 O_TOT= -0.1367902E-03 <-- DLTA
 ------------------------------------------------------------------------------
 Cycle:     10
  WF centre and spread    1  ( -0.447694, -0.447694, -0.447694 )     3.06027959
  WF centre and spread    2  ( -0.447694, -0.909804, -0.909804 )     3.06027958
  WF centre and spread    3  ( -0.909804, -0.447694, -0.909804 )     3.06027985
  WF centre and spread    4  ( -0.909804, -0.909804, -0.447694 )     3.06027980
  WF centre and spread    5  (  1.136441,  1.136441,  1.136441 )     2.66334951
  WF centre and spread    6  (  1.136441,  0.221057,  0.221057 )     2.66334951
  WF centre and spread    7  (  0.221057,  1.136441,  0.221057 )     2.66334975
  WF centre and spread    8  (  0.221057,  0.221057,  1.136441 )     2.66334974
  Sum of centres and spreads (  0.000001, -0.000000,  0.000000 )    22.89451731

     10    -0.819E-04     0.0079377370       22.8945173107       0.57  <-- CONV
        O_D=      0.3410912 O_OD=      6.7045838 O_TOT=     22.8945173 <-- SPRD
 Delta: O_D= -0.6302755E-04 O_OD= -0.1884456E-04 O_TOT= -0.8187212E-04 <-- DLTA
 ------------------------------------------------------------------------------
 Cycle:     11
  WF centre and spread    1  ( -0.447772, -0.447772, -0.447772 )     3.06333154
  WF centre and spread    2  ( -0.447772, -0.909726, -0.909726 )     3.06333154
  WF centre and spread    3  ( -0.909726, -0.447772, -0.909726 )     3.06333185
  WF centre and spread    4  ( -0.909726, -0.909726, -0.447772 )     3.06333179
  WF centre and spread    5  (  1.136381,  1.136381,  1.136381 )     2.66027867
  WF centre and spread    6  (  1.136381,  0.221117,  0.221117 )     2.66027866
  WF centre and spread    7  (  0.221117,  1.136381,  0.221117 )     2.66027891
  WF centre and spread    8  (  0.221117,  0.221117,  1.136381 )     2.66027890
  Sum of centres and spreads (  0.000001, -0.000000,  0.000000 )    22.89444185

     11    -0.755E-04     0.0064308172       22.8944418488       0.58  <-- CONV
        O_D=      0.3409927 O_OD=      6.7046069 O_TOT=     22.8944418 <-- SPRD
 Delta: O_D= -0.9856468E-04 O_OD=  0.2310275E-04 O_TOT= -0.7546193E-04 <-- DLTA
 ------------------------------------------------------------------------------
 Cycle:     12
  WF centre and spread    1  ( -0.447897, -0.447897, -0.447897 )     3.06679179
  WF centre and spread    2  ( -0.447897, -0.909602, -0.909602 )     3.06679178
  WF centre and spread    3  ( -0.909601, -0.447897, -0.909601 )     3.06679215
  WF centre and spread    4  ( -0.909601, -0.909602, -0.447897 )     3.06679209
  WF centre and spread    5  (  1.136339,  1.136339,  1.136339 )     2.65680135
  WF centre and spread    6  (  1.136339,  0.221159,  0.221159 )     2.65680135
  WF centre and spread    7  (  0.221159,  1.136339,  0.221159 )     2.65680159
  WF centre and spread    8  (  0.221159,  0.221159,  1.136339 )     2.65680158
  Sum of centres and spreads (  0.000001, -0.000000,  0.000000 )    22.89437369

     12    -0.682E-04     0.0062252439       22.8943736899       0.59  <-- CONV
        O_D=      0.3408539 O_OD=      6.7046774 O_TOT=     22.8943737 <-- SPRD
 Delta: O_D= -0.1387090E-03 O_OD=  0.7055011E-04 O_TOT= -0.6815893E-04 <-- DLTA
 ------------------------------------------------------------------------------
 Cycle:     13
  WF centre and spread    1  ( -0.447911, -0.447911, -0.447911 )     3.06693698
  WF centre and spread    2  ( -0.447911, -0.909587, -0.909587 )     3.06693698
  WF centre and spread    3  ( -0.909587, -0.447912, -0.909587 )     3.06693735
  WF centre and spread    4  ( -0.909587, -0.909587, -0.447912 )     3.06693729
  WF centre and spread    5  (  1.136359,  1.136359,  1.136359 )     2.65665189
  WF centre and spread    6  (  1.136359,  0.221139,  0.221139 )     2.65665189
  WF centre and spread    7  (  0.221139,  1.136359,  0.221139 )     2.65665213
  WF centre and spread    8  (  0.221139,  0.221139,  1.136359 )     2.65665212
  Sum of centres and spreads (  0.000001, -0.000000,  0.000000 )    22.89435662

     13    -0.171E-04     0.0042814454       22.8943566207       0.60  <-- CONV
        O_D=      0.3408571 O_OD=      6.7046572 O_TOT=     22.8943566 <-- SPRD
 Delta: O_D=  0.3147334E-05 O_OD= -0.2021651E-04 O_TOT= -0.1706918E-04 <-- DLTA
 ------------------------------------------------------------------------------
 Cycle:     14
  WF centre and spread    1  ( -0.447928, -0.447928, -0.447928 )     3.06714263
  WF centre and spread    2  ( -0.447928, -0.909571, -0.909571 )     3.06714262
  WF centre and spread    3  ( -0.909571, -0.447928, -0.909571 )     3.06714300
  WF centre and spread    4  ( -0.909571, -0.909571, -0.447928 )     3.06714294
  WF centre and spread    5  (  1.136373,  1.136373,  1.136373 )     2.65644471
  WF centre and spread    6  (  1.136373,  0.221125,  0.221125 )     2.65644471
  WF centre and spread    7  (  0.221125,  1.136373,  0.221125 )     2.65644495
  WF centre and spread    8  (  0.221125,  0.221125,  1.136373 )     2.65644494
  Sum of centres and spreads (  0.000001, -0.000000,  0.000000 )    22.89435049

     14    -0.613E-05     0.0024762033       22.8943504930       0.61  <-- CONV
        O_D=      0.3408625 O_OD=      6.7046457 O_TOT=     22.8943505 <-- SPRD
 Delta: O_D=  0.5396032E-05 O_OD= -0.1152371E-04 O_TOT= -0.6127677E-05 <-- DLTA
 ------------------------------------------------------------------------------
 Cycle:     15
  WF centre and spread    1  ( -0.447943, -0.447943, -0.447943 )     3.06741752
  WF centre and spread    2  ( -0.447943, -0.909555, -0.909555 )     3.06741752
  WF centre and spread    3  ( -0.909555, -0.447943, -0.909555 )     3.06741791
  WF centre and spread    4  ( -0.909555, -0.909555, -0.447943 )     3.06741784
  WF centre and spread    5  (  1.136372,  1.136372,  1.136372 )     2.65616915
  WF centre and spread    6  (  1.136372,  0.221126,  0.221126 )     2.65616914
  WF centre and spread    7  (  0.221126,  1.136372,  0.221126 )     2.65616939
  WF centre and spread    8  (  0.221126,  0.221126,  1.136372 )     2.65616938
  Sum of centres and spreads (  0.000001, -0.000000,  0.000000 )    22.89434784

     15    -0.266E-05     0.0014164702       22.8943478372       0.62  <-- CONV
        O_D=      0.3408605 O_OD=      6.7046451 O_TOT=     22.8943478 <-- SPRD
 Delta: O_D= -0.2012167E-05 O_OD= -0.6436487E-06 O_TOT= -0.2655816E-05 <-- DLTA
 ------------------------------------------------------------------------------
 Cycle:     16
  WF centre and spread    1  ( -0.447953, -0.447953, -0.447953 )     3.06774604
  WF centre and spread    2  ( -0.447953, -0.909545, -0.909545 )     3.06774604
  WF centre and spread    3  ( -0.909545, -0.447953, -0.909545 )     3.06774644
  WF centre and spread    4  ( -0.909545, -0.909545, -0.447953 )     3.06774638
  WF centre and spread    5  (  1.136364,  1.136364,  1.136364 )     2.65584021
  WF centre and spread    6  (  1.136364,  0.221134,  0.221134 )     2.65584021
  WF centre and spread    7  (  0.221134,  1.136364,  0.221134 )     2.65584045
  WF centre and spread    8  (  0.221134,  0.221134,  1.136364 )     2.65584044
  Sum of centres and spreads (  0.000001, -0.000000,  0.000000 )    22.89434623

     16    -0.161E-05     0.0010825252       22.8943462306       0.63  <-- CONV
        O_D=      0.3408539 O_OD=      6.7046501 O_TOT=     22.8943462 <-- SPRD
 Delta: O_D= -0.6610499E-05 O_OD=  0.5003854E-05 O_TOT= -0.1606644E-05 <-- DLTA
 ------------------------------------------------------------------------------
 Cycle:     17
  WF centre and spread    1  ( -0.447957, -0.447957, -0.447957 )     3.06810050
  WF centre and spread    2  ( -0.447957, -0.909541, -0.909541 )     3.06810050
  WF centre and spread    3  ( -0.909541, -0.447957, -0.909541 )     3.06810092
  WF centre and spread    4  ( -0.909541, -0.909541, -0.447957 )     3.06810086
  WF centre and spread    5  (  1.136357,  1.136357,  1.136357 )     2.65548548
  WF centre and spread    6  (  1.136357,  0.221142,  0.221142 )     2.65548548
  WF centre and spread    7  (  0.221142,  1.136357,  0.221142 )     2.65548572
  WF centre and spread    8  (  0.221142,  0.221142,  1.136357 )     2.65548571
  Sum of centres and spreads (  0.000001, -0.000000,  0.000000 )    22.89434516

     17    -0.107E-05     0.0008437343       22.8943451643       0.64  <-- CONV
        O_D=      0.3408401 O_OD=      6.7046628 O_TOT=     22.8943452 <-- SPRD
 Delta: O_D= -0.1375992E-04 O_OD=  0.1269364E-04 O_TOT= -0.1066276E-05 <-- DLTA
 ------------------------------------------------------------------------------
 Cycle:     18
  WF centre and spread    1  ( -0.447958, -0.447958, -0.447958 )     3.06846159
  WF centre and spread    2  ( -0.447958, -0.909540, -0.909540 )     3.06846158
  WF centre and spread    3  ( -0.909540, -0.447959, -0.909540 )     3.06846202
  WF centre and spread    4  ( -0.909540, -0.909540, -0.447959 )     3.06846196
  WF centre and spread    5  (  1.136351,  1.136351,  1.136351 )     2.65512419
  WF centre and spread    6  (  1.136351,  0.221147,  0.221147 )     2.65512418
  WF centre and spread    7  (  0.221147,  1.136351,  0.221147 )     2.65512442
  WF centre and spread    8  (  0.221147,  0.221147,  1.136351 )     2.65512441
  Sum of centres and spreads (  0.000001, -0.000000,  0.000000 )    22.89434437

     18    -0.799E-06     0.0007177086       22.8943443655       0.65  <-- CONV
        O_D=      0.3408163 O_OD=      6.7046857 O_TOT=     22.8943444 <-- SPRD
 Delta: O_D= -0.2376054E-04 O_OD=  0.2296172E-04 O_TOT= -0.7988181E-06 <-- DLTA
 ------------------------------------------------------------------------------
 Cycle:     19
  WF centre and spread    1  ( -0.447960, -0.447960, -0.447960 )     3.06849822
  WF centre and spread    2  ( -0.447960, -0.909539, -0.909539 )     3.06849822
  WF centre and spread    3  ( -0.909539, -0.447960, -0.909539 )     3.06849866
  WF centre and spread    4  ( -0.909539, -0.909539, -0.447960 )     3.06849860
  WF centre and spread    5  (  1.136352,  1.136352,  1.136352 )     2.65508745
  WF centre and spread    6  (  1.136352,  0.221146,  0.221146 )     2.65508745
  WF centre and spread    7  (  0.221146,  1.136352,  0.221146 )     2.65508769
  WF centre and spread    8  (  0.221146,  0.221146,  1.136352 )     2.65508768
  Sum of centres and spreads (  0.000001, -0.000000,  0.000000 )    22.89434397

     19    -0.395E-06     0.0006071282       22.8943439701       0.66  <-- CONV
        O_D=      0.3408109 O_OD=      6.7046907 O_TOT=     22.8943440 <-- SPRD
 Delta: O_D= -0.5410923E-05 O_OD=  0.5015540E-05 O_TOT= -0.3953832E-06 <-- DLTA
 ------------------------------------------------------------------------------
 Cycle:     20
  WF centre and spread    1  ( -0.447960, -0.447960, -0.447960 )     3.06856378
  WF centre and spread    2  ( -0.447960, -0.909538, -0.909538 )     3.06856377
  WF centre and spread    3  ( -0.909538, -0.447960, -0.909538 )     3.06856423
  WF centre and spread    4  ( -0.909538, -0.909538, -0.447960 )     3.06856416
  WF centre and spread    5  (  1.136353,  1.136353,  1.136353 )     2.65502184
  WF centre and spread    6  (  1.136353,  0.221146,  0.221146 )     2.65502183
  WF centre and spread    7  (  0.221146,  1.136353,  0.221146 )     2.65502207
  WF centre and spread    8  (  0.221146,  0.221146,  1.136353 )     2.65502206
  Sum of centres and spreads (  0.000001, -0.000000,  0.000000 )    22.89434374

     20    -0.232E-06     0.0004223804       22.8943437386       0.67  <-- CONV
        O_D=      0.3408038 O_OD=      6.7046976 O_TOT=     22.8943437 <-- SPRD
 Delta: O_D= -0.7134833E-05 O_OD=  0.6903293E-05 O_TOT= -0.2315405E-06 <-- DLTA
 ------------------------------------------------------------------------------
 Cycle:     21
  WF centre and spread    1  ( -0.447960, -0.447960, -0.447960 )     3.06864937
  WF centre and spread    2  ( -0.447960, -0.909539, -0.909539 )     3.06864936
  WF centre and spread    3  ( -0.909538, -0.447960, -0.909538 )     3.06864983
  WF centre and spread    4  ( -0.909538, -0.909538, -0.447960 )     3.06864977
  WF centre and spread    5  (  1.136352,  1.136352,  1.136352 )     2.65493620
  WF centre and spread    6  (  1.136352,  0.221146,  0.221146 )     2.65493620
  WF centre and spread    7  (  0.221146,  1.136352,  0.221146 )     2.65493644
  WF centre and spread    8  (  0.221146,  0.221146,  1.136352 )     2.65493643
  Sum of centres and spreads (  0.000001, -0.000000,  0.000000 )    22.89434359

     21    -0.150E-06     0.0003246980       22.8943435889       0.68  <-- CONV
        O_D=      0.3407985 O_OD=      6.7047028 O_TOT=     22.8943436 <-- SPRD
 Delta: O_D= -0.5336863E-05 O_OD=  0.5187245E-05 O_TOT= -0.1496181E-06 <-- DLTA
 ------------------------------------------------------------------------------
 Cycle:     22
  WF centre and spread    1  ( -0.447960, -0.447960, -0.447960 )     3.06873673
  WF centre and spread    2  ( -0.447960, -0.909538, -0.909538 )     3.06873673
  WF centre and spread    3  ( -0.909538, -0.447960, -0.909538 )     3.06873721
  WF centre and spread    4  ( -0.909538, -0.909538, -0.447960 )     3.06873714
  WF centre and spread    5  (  1.136351,  1.136351,  1.136351 )     2.65484881
  WF centre and spread    6  (  1.136351,  0.221148,  0.221148 )     2.65484881
  WF centre and spread    7  (  0.221148,  1.136351,  0.221148 )     2.65484904
  WF centre and spread    8  (  0.221148,  0.221148,  1.136351 )     2.65484903
  Sum of centres and spreads (  0.000001, -0.000000,  0.000000 )    22.89434349

     22    -0.946E-07     0.0002647797       22.8943434943       0.69  <-- CONV
        O_D=      0.3407946 O_OD=      6.7047066 O_TOT=     22.8943435 <-- SPRD
 Delta: O_D= -0.3872322E-05 O_OD=  0.3777687E-05 O_TOT= -0.9463533E-07 <-- DLTA
 ------------------------------------------------------------------------------
 Cycle:     23
  WF centre and spread    1  ( -0.447962, -0.447962, -0.447962 )     3.06884203
  WF centre and spread    2  ( -0.447962, -0.909537, -0.909537 )     3.06884203
  WF centre and spread    3  ( -0.909537, -0.447962, -0.909537 )     3.06884253
  WF centre and spread    4  ( -0.909537, -0.909537, -0.447962 )     3.06884246
  WF centre and spread    5  (  1.136348,  1.136348,  1.136348 )     2.65474348
  WF centre and spread    6  (  1.136348,  0.221150,  0.221150 )     2.65474348
  WF centre and spread    7  (  0.221150,  1.136348,  0.221150 )     2.65474371
  WF centre and spread    8  (  0.221150,  0.221150,  1.136348 )     2.65474371
  Sum of centres and spreads (  0.000001, -0.000000,  0.000000 )    22.89434342

     23    -0.765E-07     0.0002111959       22.8943434178       0.70  <-- CONV
        O_D=      0.3407900 O_OD=      6.7047111 O_TOT=     22.8943434 <-- SPRD
 Delta: O_D= -0.4590131E-05 O_OD=  0.4513653E-05 O_TOT= -0.7647805E-07 <-- DLTA
 ------------------------------------------------------------------------------
 Cycle:     24
  WF centre and spread    1  ( -0.447964, -0.447964, -0.447964 )     3.06893372
  WF centre and spread    2  ( -0.447964, -0.909534, -0.909534 )     3.06893372
  WF centre and spread    3  ( -0.909534, -0.447964, -0.909534 )     3.06893423
  WF centre and spread    4  ( -0.909534, -0.909534, -0.447964 )     3.06893417
  WF centre and spread    5  (  1.136347,  1.136347,  1.136347 )     2.65465177
  WF centre and spread    6  (  1.136347,  0.221151,  0.221151 )     2.65465176
  WF centre and spread    7  (  0.221151,  1.136347,  0.221151 )     2.65465200
  WF centre and spread    8  (  0.221151,  0.221151,  1.136347 )     2.65465199
  Sum of centres and spreads (  0.000001, -0.000000,  0.000000 )    22.89434336

     24    -0.554E-07     0.0002052034       22.8943433624       0.71  <-- CONV
        O_D=      0.3407868 O_OD=      6.7047143 O_TOT=     22.8943434 <-- SPRD
 Delta: O_D= -0.3245203E-05 O_OD=  0.3189809E-05 O_TOT= -0.5539404E-07 <-- DLTA
 ------------------------------------------------------------------------------
 Cycle:     25
  WF centre and spread    1  ( -0.447965, -0.447965, -0.447965 )     3.06893877
  WF centre and spread    2  ( -0.447965, -0.909533, -0.909533 )     3.06893877
  WF centre and spread    3  ( -0.909533, -0.447965, -0.909533 )     3.06893929
  WF centre and spread    4  ( -0.909533, -0.909533, -0.447965 )     3.06893923
  WF centre and spread    5  (  1.136348,  1.136348,  1.136348 )     2.65464671
  WF centre and spread    6  (  1.136348,  0.221151,  0.221151 )     2.65464670
  WF centre and spread    7  (  0.221151,  1.136348,  0.221151 )     2.65464694
  WF centre and spread    8  (  0.221151,  0.221151,  1.136348 )     2.65464693
  Sum of centres and spreads (  0.000001, -0.000000,  0.000000 )    22.89434334

     25    -0.226E-07     0.0001509815       22.8943433398       0.72  <-- CONV
        O_D=      0.3407873 O_OD=      6.7047138 O_TOT=     22.8943433 <-- SPRD
 Delta: O_D=  0.5272116E-06 O_OD= -0.5498088E-06 O_TOT= -0.2259724E-07 <-- DLTA
 ------------------------------------------------------------------------------
 Cycle:     26
  WF centre and spread    1  ( -0.447966, -0.447966, -0.447966 )     3.06894660
  WF centre and spread    2  ( -0.447966, -0.909532, -0.909532 )     3.06894660
  WF centre and spread    3  ( -0.909532, -0.447966, -0.909532 )     3.06894713
  WF centre and spread    4  ( -0.909532, -0.909532, -0.447966 )     3.06894706
  WF centre and spread    5  (  1.136348,  1.136348,  1.136348 )     2.65463888
  WF centre and spread    6  (  1.136348,  0.221150,  0.221150 )     2.65463887
  WF centre and spread    7  (  0.221150,  1.136348,  0.221150 )     2.65463911
  WF centre and spread    8  (  0.221150,  0.221150,  1.136348 )     2.65463910
  Sum of centres and spreads (  0.000001, -0.000000,  0.000000 )    22.89434333

     26    -0.814E-08     0.0000873160       22.8943433317       0.73  <-- CONV
        O_D=      0.3407878 O_OD=      6.7047132 O_TOT=     22.8943433 <-- SPRD
 Delta: O_D=  0.5265837E-06 O_OD= -0.5347251E-06 O_TOT= -0.8141377E-08 <-- DLTA
 ------------------------------------------------------------------------------
 Cycle:     27
  WF centre and spread    1  ( -0.447967, -0.447967, -0.447967 )     3.06895894
  WF centre and spread    2  ( -0.447967, -0.909531, -0.909531 )     3.06895894
  WF centre and spread    3  ( -0.909531, -0.447967, -0.909531 )     3.06895948
  WF centre and spread    4  ( -0.909531, -0.909531, -0.447967 )     3.06895942
  WF centre and spread    5  (  1.136348,  1.136348,  1.136348 )     2.65462652
  WF centre and spread    6  (  1.136348,  0.221150,  0.221150 )     2.65462652
  WF centre and spread    7  (  0.221150,  1.136348,  0.221150 )     2.65462676
  WF centre and spread    8  (  0.221150,  0.221150,  1.136348 )     2.65462675
  Sum of centres and spreads (  0.000001, -0.000000,  0.000000 )    22.89434333

     27    -0.309E-08     0.0000570257       22.8943433286       0.74  <-- CONV
        O_D=      0.3407878 O_OD=      6.7047132 O_TOT=     22.8943433 <-- SPRD
 Delta: O_D= -0.8196888E-09 O_OD= -0.2273030E-08 O_TOT= -0.3092719E-08 <-- DLTA
 ------------------------------------------------------------------------------
 Cycle:     28
  WF centre and spread    1  ( -0.447968, -0.447968, -0.447968 )     3.06897025
  WF centre and spread    2  ( -0.447968, -0.909531, -0.909531 )     3.06897025
  WF centre and spread    3  ( -0.909531, -0.447968, -0.909531 )     3.06897080
  WF centre and spread    4  ( -0.909531, -0.909531, -0.447968 )     3.06897073
  WF centre and spread    5  (  1.136348,  1.136348,  1.136348 )     2.65461521
  WF centre and spread    6  (  1.136348,  0.221150,  0.221150 )     2.65461521
  WF centre and spread    7  (  0.221150,  1.136348,  0.221150 )     2.65461544
  WF centre and spread    8  (  0.221150,  0.221150,  1.136348 )     2.65461544
  Sum of centres and spreads (  0.000001, -0.000000,  0.000000 )    22.89434333

     28    -0.206E-08     0.0000574164       22.8943433265       0.75  <-- CONV
        O_D=      0.3407876 O_OD=      6.7047134 O_TOT=     22.8943433 <-- SPRD
 Delta: O_D= -0.1812757E-06 O_OD=  0.1792141E-06 O_TOT= -0.2061647E-08 <-- DLTA
 ------------------------------------------------------------------------------
 Cycle:     29
  WF centre and spread    1  ( -0.447968, -0.447968, -0.447968 )     3.06898065
  WF centre and spread    2  ( -0.447968, -0.909531, -0.909531 )     3.06898065
  WF centre and spread    3  ( -0.909531, -0.447968, -0.909530 )     3.06898122
  WF centre and spread    4  ( -0.909530, -0.909530, -0.447968 )     3.06898115
  WF centre and spread    5  (  1.136348,  1.136348,  1.136348 )     2.65460480
  WF centre and spread    6  (  1.136348,  0.221150,  0.221150 )     2.65460479
  WF centre and spread    7  (  0.221150,  1.136348,  0.221150 )     2.65460503
  WF centre and spread    8  (  0.221150,  0.221150,  1.136348 )     2.65460502
  Sum of centres and spreads (  0.000001, -0.000000,  0.000000 )    22.89434332

     29    -0.164E-08     0.0000376728       22.8943433249       0.76  <-- CONV
        O_D=      0.3407872 O_OD=      6.7047139 O_TOT=     22.8943433 <-- SPRD
 Delta: O_D= -0.4599075E-06 O_OD=  0.4582655E-06 O_TOT= -0.1641986E-08 <-- DLTA
 ------------------------------------------------------------------------------
 Cycle:     30
  WF centre and spread    1  ( -0.447968, -0.447968, -0.447968 )     3.06898667
  WF centre and spread    2  ( -0.447968, -0.909531, -0.909531 )     3.06898667
  WF centre and spread    3  ( -0.909531, -0.447968, -0.909530 )     3.06898724
  WF centre and spread    4  ( -0.909530, -0.909531, -0.447968 )     3.06898718
  WF centre and spread    5  (  1.136348,  1.136348,  1.136348 )     2.65459878
  WF centre and spread    6  (  1.136348,  0.221151,  0.221151 )     2.65459877
  WF centre and spread    7  (  0.221151,  1.136348,  0.221151 )     2.65459901
  WF centre and spread    8  (  0.221151,  0.221150,  1.136348 )     2.65459900
  Sum of centres and spreads (  0.000001, -0.000000,  0.000000 )    22.89434332

     30    -0.933E-09     0.0000337629       22.8943433240       0.77  <-- CONV
        O_D=      0.3407867 O_OD=      6.7047143 O_TOT=     22.8943433 <-- SPRD
 Delta: O_D= -0.4601339E-06 O_OD=  0.4592006E-06 O_TOT= -0.9332553E-09 <-- DLTA
 ------------------------------------------------------------------------------
 Cycle:     31
  WF centre and spread    1  ( -0.447968, -0.447968, -0.447968 )     3.06898955
  WF centre and spread    2  ( -0.447968, -0.909531, -0.909531 )     3.06898955
  WF centre and spread    3  ( -0.909531, -0.447968, -0.909530 )     3.06899013
  WF centre and spread    4  ( -0.909530, -0.909531, -0.447968 )     3.06899007
  WF centre and spread    5  (  1.136348,  1.136348,  1.136348 )     2.65459589
  WF centre and spread    6  (  1.136348,  0.221150,  0.221151 )     2.65459589
  WF centre and spread    7  (  0.221151,  1.136348,  0.221150 )     2.65459612
  WF centre and spread    8  (  0.221151,  0.221150,  1.136348 )     2.65459612
  Sum of centres and spreads (  0.000001, -0.000000,  0.000000 )    22.89434332

     31    -0.560E-09     0.0000233323       22.8943433234       0.78  <-- CONV
        O_D=      0.3407862 O_OD=      6.7047148 O_TOT=     22.8943433 <-- SPRD
 Delta: O_D= -0.4690068E-06 O_OD=  0.4684465E-06 O_TOT= -0.5603269E-09 <-- DLTA
 ------------------------------------------------------------------------------
 Cycle:     32
  WF centre and spread    1  ( -0.447968, -0.447968, -0.447968 )     3.06899170
  WF centre and spread    2  ( -0.447968, -0.909531, -0.909531 )     3.06899171
  WF centre and spread    3  ( -0.909531, -0.447968, -0.909531 )     3.06899229
  WF centre and spread    4  ( -0.909531, -0.909531, -0.447968 )     3.06899222
  WF centre and spread    5  (  1.136348,  1.136348,  1.136348 )     2.65459374
  WF centre and spread    6  (  1.136348,  0.221150,  0.221151 )     2.65459373
  WF centre and spread    7  (  0.221151,  1.136348,  0.221150 )     2.65459397
  WF centre and spread    8  (  0.221151,  0.221150,  1.136348 )     2.65459396
  Sum of centres and spreads (  0.000001, -0.000000,  0.000000 )    22.89434332

     32    -0.340E-09     0.0000301760       22.8943433231       0.79  <-- CONV
        O_D=      0.3407860 O_OD=      6.7047150 O_TOT=     22.8943433 <-- SPRD
 Delta: O_D= -0.2454453E-06 O_OD=  0.2451054E-06 O_TOT= -0.3399094E-09 <-- DLTA
 ------------------------------------------------------------------------------
 Cycle:     33
  WF centre and spread    1  ( -0.447968, -0.447967, -0.447968 )     3.06899770
  WF centre and spread    2  ( -0.447967, -0.909531, -0.909531 )     3.06899770
  WF centre and spread    3  ( -0.909531, -0.447968, -0.909531 )     3.06899830
  WF centre and spread    4  ( -0.909531, -0.909531, -0.447968 )     3.06899824
  WF centre and spread    5  (  1.136348,  1.136348,  1.136348 )     2.65458774
  WF centre and spread    6  (  1.136348,  0.221151,  0.221151 )     2.65458773
  WF centre and spread    7  (  0.221151,  1.136348,  0.221151 )     2.65458797
  WF centre and spread    8  (  0.221151,  0.221151,  1.136348 )     2.65458796
  Sum of centres and spreads (  0.000001, -0.000000,  0.000000 )    22.89434332

     33     0.104E-08     0.0000234731       22.8943433241       0.80  <-- CONV
        O_D=      0.3407856 O_OD=      6.7047154 O_TOT=     22.8943433 <-- SPRD
 Delta: O_D= -0.3637001E-06 O_OD=  0.3647360E-06 O_TOT=  0.1035847E-08 <-- DLTA
 ------------------------------------------------------------------------------
 Cycle:     34
  WF centre and spread    1  ( -0.447968, -0.447967, -0.447968 )     3.06899816
  WF centre and spread    2  ( -0.447967, -0.909531, -0.909531 )     3.06899817
  WF centre and spread    3  ( -0.909531, -0.447968, -0.909531 )     3.06899877
  WF centre and spread    4  ( -0.909531, -0.909531, -0.447968 )     3.06899870
  WF centre and spread    5  (  1.136348,  1.136348,  1.136348 )     2.65458727
  WF centre and spread    6  (  1.136348,  0.221151,  0.221151 )     2.65458726
  WF centre and spread    7  (  0.221151,  1.136348,  0.221151 )     2.65458750
  WF centre and spread    8  (  0.221151,  0.221151,  1.136348 )     2.65458749
  Sum of centres and spreads (  0.000001, -0.000000,  0.000000 )    22.89434332

     34    -0.157E-08     0.0000557426       22.8943433225       0.81  <-- CONV
        O_D=      0.3407856 O_OD=      6.7047154 O_TOT=     22.8943433 <-- SPRD
 Delta: O_D=  0.9517663E-08 O_OD= -0.1108574E-07 O_TOT= -0.1568079E-08 <-- DLTA
 ------------------------------------------------------------------------------
 Cycle:     35
  WF centre and spread    1  ( -0.447968, -0.447967, -0.447968 )     3.06899817
  WF centre and spread    2  ( -0.447967, -0.909531, -0.909531 )     3.06899818
  WF centre and spread    3  ( -0.909531, -0.447968, -0.909531 )     3.06899878
  WF centre and spread    4  ( -0.909531, -0.909531, -0.447968 )     3.06899872
  WF centre and spread    5  (  1.136348,  1.136348,  1.136348 )     2.65458726
  WF centre and spread    6  (  1.136348,  0.221151,  0.221151 )     2.65458725
  WF centre and spread    7  (  0.221151,  1.136348,  0.221151 )     2.65458749
  WF centre and spread    8  (  0.221151,  0.221151,  1.136348 )     2.65458748
  Sum of centres and spreads (  0.000001, -0.000000,  0.000000 )    22.89434332

     35    -0.407E-11     0.0000122915       22.8943433225       0.82  <-- CONV
        O_D=      0.3407856 O_OD=      6.7047154 O_TOT=     22.8943433 <-- SPRD
 Delta: O_D=  0.3344752E-09 O_OD= -0.3385461E-09 O_TOT= -0.4071410E-11 <-- DLTA
 ------------------------------------------------------------------------------
 Cycle:     36
  WF centre and spread    1  ( -0.447968, -0.447968, -0.447968 )     3.06899894
  WF centre and spread    2  ( -0.447968, -0.909531, -0.909531 )     3.06899895
  WF centre and spread    3  ( -0.909531, -0.447968, -0.909531 )     3.06899955
  WF centre and spread    4  ( -0.909531, -0.909531, -0.447968 )     3.06899949
  WF centre and spread    5  (  1.136348,  1.136348,  1.136348 )     2.65458648
  WF centre and spread    6  (  1.136348,  0.221151,  0.221151 )     2.65458648
  WF centre and spread    7  (  0.221151,  1.136348,  0.221151 )     2.65458672
  WF centre and spread    8  (  0.221151,  0.221151,  1.136348 )     2.65458671
  Sum of centres and spreads (  0.000001, -0.000000,  0.000000 )    22.89434332

     36    -0.158E-09     0.0000121450       22.8943433224       0.83  <-- CONV
        O_D=      0.3407857 O_OD=      6.7047154 O_TOT=     22.8943433 <-- SPRD
 Delta: O_D=  0.2225240E-07 O_OD= -0.2241063E-07 O_TOT= -0.1582237E-09 <-- DLTA
 ------------------------------------------------------------------------------
 Cycle:     37
  WF centre and spread    1  ( -0.447968, -0.447968, -0.447968 )     3.06899896
  WF centre and spread    2  ( -0.447968, -0.909531, -0.909531 )     3.06899897
  WF centre and spread    3  ( -0.909531, -0.447968, -0.909531 )     3.06899957
  WF centre and spread    4  ( -0.909531, -0.909531, -0.447968 )     3.06899951
  WF centre and spread    5  (  1.136348,  1.136348,  1.136348 )     2.65458647
  WF centre and spread    6  (  1.136348,  0.221151,  0.221151 )     2.65458646
  WF centre and spread    7  (  0.221151,  1.136348,  0.221151 )     2.65458670
  WF centre and spread    8  (  0.221151,  0.221151,  1.136348 )     2.65458669
  Sum of centres and spreads (  0.000001, -0.000000,  0.000000 )    22.89434332

     37    -0.223E-11     0.0000078364       22.8943433224       0.84  <-- CONV
        O_D=      0.3407857 O_OD=      6.7047154 O_TOT=     22.8943433 <-- SPRD
 Delta: O_D=  0.5145814E-09 O_OD= -0.5168133E-09 O_TOT= -0.2231104E-11 <-- DLTA
 ------------------------------------------------------------------------------
 Cycle:     38
  WF centre and spread    1  ( -0.447968, -0.447968, -0.447968 )     3.06899974
  WF centre and spread    2  ( -0.447968, -0.909531, -0.909531 )     3.06899975
  WF centre and spread    3  ( -0.909531, -0.447968, -0.909530 )     3.06900036
  WF centre and spread    4  ( -0.909530, -0.909531, -0.447968 )     3.06900029
  WF centre and spread    5  (  1.136348,  1.136348,  1.136348 )     2.65458568
  WF centre and spread    6  (  1.136348,  0.221151,  0.221151 )     2.65458568
  WF centre and spread    7  (  0.221151,  1.136348,  0.221151 )     2.65458592
  WF centre and spread    8  (  0.221151,  0.221151,  1.136348 )     2.65458591
  Sum of centres and spreads (  0.000001, -0.000000,  0.000000 )    22.89434332

     38    -0.811E-10     0.0000078092       22.8943433223       0.84  <-- CONV
        O_D=      0.3407857 O_OD=      6.7047153 O_TOT=     22.8943433 <-- SPRD
 Delta: O_D=  0.1994077E-07 O_OD= -0.2002188E-07 O_TOT= -0.8111556E-10 <-- DLTA
 ------------------------------------------------------------------------------
 Cycle:     39
  WF centre and spread    1  ( -0.447968, -0.447968, -0.447968 )     3.06900011
  WF centre and spread    2  ( -0.447968, -0.909531, -0.909531 )     3.06900011
  WF centre and spread    3  ( -0.909531, -0.447968, -0.909530 )     3.06900073
  WF centre and spread    4  ( -0.909530, -0.909531, -0.447968 )     3.06900066
  WF centre and spread    5  (  1.136348,  1.136348,  1.136348 )     2.65458532
  WF centre and spread    6  (  1.136348,  0.221151,  0.221151 )     2.65458531
  WF centre and spread    7  (  0.221151,  1.136348,  0.221151 )     2.65458555
  WF centre and spread    8  (  0.221151,  0.221151,  1.136348 )     2.65458554
  Sum of centres and spreads (  0.000001, -0.000000,  0.000000 )    22.89434332

     39    -0.264E-10     0.0000053509       22.8943433223       0.86  <-- CONV
        O_D=      0.3407857 O_OD=      6.7047153 O_TOT=     22.8943433 <-- SPRD
 Delta: O_D=  0.5535020E-08 O_OD= -0.5561409E-08 O_TOT= -0.2639311E-10 <-- DLTA
 ------------------------------------------------------------------------------
 Cycle:     40
  WF centre and spread    1  ( -0.447968, -0.447968, -0.447968 )     3.06900028
  WF centre and spread    2  ( -0.447968, -0.909531, -0.909531 )     3.06900029
  WF centre and spread    3  ( -0.909531, -0.447968, -0.909530 )     3.06900090
  WF centre and spread    4  ( -0.909530, -0.909531, -0.447968 )     3.06900084
  WF centre and spread    5  (  1.136348,  1.136348,  1.136348 )     2.65458514
  WF centre and spread    6  (  1.136348,  0.221151,  0.221151 )     2.65458513
  WF centre and spread    7  (  0.221151,  1.136348,  0.221151 )     2.65458537
  WF centre and spread    8  (  0.221151,  0.221151,  1.136348 )     2.65458536
  Sum of centres and spreads (  0.000001, -0.000000,  0.000000 )    22.89434332

     40    -0.104E-10     0.0000045336       22.8943433222       0.86  <-- CONV
        O_D=      0.3407857 O_OD=      6.7047153 O_TOT=     22.8943433 <-- SPRD
 Delta: O_D= -0.1964816E-08 O_OD=  0.1954366E-08 O_TOT= -0.1044853E-10 <-- DLTA
 ------------------------------------------------------------------------------
 Cycle:     41
  WF centre and spread    1  ( -0.447968, -0.447968, -0.447968 )     3.06900042
  WF centre and spread    2  ( -0.447968, -0.909531, -0.909531 )     3.06900042
  WF centre and spread    3  ( -0.909531, -0.447968, -0.909530 )     3.06900104
  WF centre and spread    4  ( -0.909530, -0.909531, -0.447968 )     3.06900097
  WF centre and spread    5  (  1.136348,  1.136348,  1.136348 )     2.65458501
  WF centre and spread    6  (  1.136348,  0.221151,  0.221151 )     2.65458500
  WF centre and spread    7  (  0.221151,  1.136348,  0.221151 )     2.65458524
  WF centre and spread    8  (  0.221151,  0.221151,  1.136348 )     2.65458523
  Sum of centres and spreads (  0.000001, -0.000000,  0.000000 )    22.89434332

     41    -0.711E-11     0.0000041605       22.8943433222       0.88  <-- CONV
        O_D=      0.3407857 O_OD=      6.7047153 O_TOT=     22.8943433 <-- SPRD
 Delta: O_D= -0.1598434E-08 O_OD=  0.1591329E-08 O_TOT= -0.7105427E-11 <-- DLTA
 ------------------------------------------------------------------------------
 Cycle:     42
  WF centre and spread    1  ( -0.447968, -0.447968, -0.447968 )     3.06900053
  WF centre and spread    2  ( -0.447968, -0.909531, -0.909531 )     3.06900053
  WF centre and spread    3  ( -0.909531, -0.447968, -0.909530 )     3.06900115
  WF centre and spread    4  ( -0.909530, -0.909531, -0.447968 )     3.06900108
  WF centre and spread    5  (  1.136348,  1.136348,  1.136348 )     2.65458490
  WF centre and spread    6  (  1.136348,  0.221151,  0.221151 )     2.65458489
  WF centre and spread    7  (  0.221151,  1.136348,  0.221151 )     2.65458513
  WF centre and spread    8  (  0.221151,  0.221151,  1.136348 )     2.65458512
  Sum of centres and spreads (  0.000001, -0.000000,  0.000000 )    22.89434332

     42    -0.522E-11     0.0000039551       22.8943433222       0.88  <-- CONV
        O_D=      0.3407857 O_OD=      6.7047153 O_TOT=     22.8943433 <-- SPRD
 Delta: O_D= -0.1351594E-08 O_OD=  0.1346371E-08 O_TOT= -0.5222489E-11 <-- DLTA
 ------------------------------------------------------------------------------
 Cycle:     43
  WF centre and spread    1  ( -0.447968, -0.447968, -0.447968 )     3.06900056
  WF centre and spread    2  ( -0.447968, -0.909531, -0.909531 )     3.06900056
  WF centre and spread    3  ( -0.909531, -0.447968, -0.909530 )     3.06900118
  WF centre and spread    4  ( -0.909530, -0.909531, -0.447968 )     3.06900111
  WF centre and spread    5  (  1.136348,  1.136348,  1.136348 )     2.65458487
  WF centre and spread    6  (  1.136348,  0.221151,  0.221151 )     2.65458486
  WF centre and spread    7  (  0.221151,  1.136348,  0.221151 )     2.65458510
  WF centre and spread    8  (  0.221151,  0.221151,  1.136348 )     2.65458509
  Sum of centres and spreads (  0.000001, -0.000000,  0.000000 )    22.89434332

     43    -0.150E-11     0.0000038251       22.8943433222       0.89  <-- CONV
        O_D=      0.3407857 O_OD=      6.7047153 O_TOT=     22.8943433 <-- SPRD
 Delta: O_D= -0.3961497E-09 O_OD=  0.3946505E-09 O_TOT= -0.1499245E-11 <-- DLTA
 ------------------------------------------------------------------------------
 Cycle:     44
  WF centre and spread    1  ( -0.447968, -0.447968, -0.447968 )     3.06900092
  WF centre and spread    2  ( -0.447968, -0.909531, -0.909531 )     3.06900093
  WF centre and spread    3  ( -0.909531, -0.447968, -0.909530 )     3.06900154
  WF centre and spread    4  ( -0.909530, -0.909531, -0.447968 )     3.06900148
  WF centre and spread    5  (  1.136348,  1.136348,  1.136348 )     2.65458450
  WF centre and spread    6  (  1.136348,  0.221151,  0.221151 )     2.65458449
  WF centre and spread    7  (  0.221151,  1.136348,  0.221151 )     2.65458473
  WF centre and spread    8  (  0.221151,  0.221151,  1.136348 )     2.65458472
  Sum of centres and spreads (  0.000001, -0.000000,  0.000000 )    22.89434332

     44    -0.161E-10     0.0000037932       22.8943433222       0.90  <-- CONV
        O_D=      0.3407857 O_OD=      6.7047153 O_TOT=     22.8943433 <-- SPRD
 Delta: O_D= -0.4931859E-08 O_OD=  0.4915786E-08 O_TOT= -0.1607248E-10 <-- DLTA
 ------------------------------------------------------------------------------
 Cycle:     45
  WF centre and spread    1  ( -0.447968, -0.447968, -0.447968 )     3.06900165
  WF centre and spread    2  ( -0.447968, -0.909531, -0.909531 )     3.06900165
  WF centre and spread    3  ( -0.909531, -0.447968, -0.909530 )     3.06900227
  WF centre and spread    4  ( -0.909530, -0.909530, -0.447968 )     3.06900221
  WF centre and spread    5  (  1.136348,  1.136348,  1.136348 )     2.65458377
  WF centre and spread    6  (  1.136348,  0.221151,  0.221151 )     2.65458377
  WF centre and spread    7  (  0.221151,  1.136348,  0.221151 )     2.65458401
  WF centre and spread    8  (  0.221151,  0.221151,  1.136348 )     2.65458400
  Sum of centres and spreads (  0.000001, -0.000000,  0.000000 )    22.89434332

     45    -0.266E-10     0.0000034846       22.8943433222       0.91  <-- CONV
        O_D=      0.3407857 O_OD=      6.7047153 O_TOT=     22.8943433 <-- SPRD
 Delta: O_D= -0.1035895E-07 O_OD=  0.1033239E-07 O_TOT= -0.2656009E-10 <-- DLTA
 ------------------------------------------------------------------------------
 Cycle:     46
  WF centre and spread    1  ( -0.447968, -0.447968, -0.447968 )     3.06900165
  WF centre and spread    2  ( -0.447968, -0.909531, -0.909531 )     3.06900166
  WF centre and spread    3  ( -0.909531, -0.447968, -0.909530 )     3.06900228
  WF centre and spread    4  ( -0.909530, -0.909530, -0.447968 )     3.06900221
  WF centre and spread    5  (  1.136348,  1.136348,  1.136348 )     2.65458377
  WF centre and spread    6  (  1.136348,  0.221151,  0.221151 )     2.65458376
  WF centre and spread    7  (  0.221151,  1.136348,  0.221151 )     2.65458400
  WF centre and spread    8  (  0.221151,  0.221151,  1.136348 )     2.65458399
  Sum of centres and spreads (  0.000001, -0.000000,  0.000000 )    22.89434332

     46    -0.174E-12     0.0000031690       22.8943433222       0.92  <-- CONV
        O_D=      0.3407857 O_OD=      6.7047154 O_TOT=     22.8943433 <-- SPRD
 Delta: O_D= -0.1612714E-09 O_OD=  0.1610969E-09 O_TOT= -0.1740830E-12 <-- DLTA
 ------------------------------------------------------------------------------
 Cycle:     47
  WF centre and spread    1  ( -0.447968, -0.447968, -0.447968 )     3.06900167
  WF centre and spread    2  ( -0.447968, -0.909531, -0.909531 )     3.06900167
  WF centre and spread    3  ( -0.909531, -0.447968, -0.909530 )     3.06900229
  WF centre and spread    4  ( -0.909530, -0.909530, -0.447968 )     3.06900223
  WF centre and spread    5  (  1.136348,  1.136348,  1.136348 )     2.65458375
  WF centre and spread    6  (  1.136348,  0.221151,  0.221151 )     2.65458375
  WF centre and spread    7  (  0.221151,  1.136348,  0.221151 )     2.65458399
  WF centre and spread    8  (  0.221151,  0.221151,  1.136348 )     2.65458398
  Sum of centres and spreads (  0.000001, -0.000000,  0.000000 )    22.89434332

     47    -0.561E-12     0.0000031589       22.8943433222       0.93  <-- CONV
        O_D=      0.3407857 O_OD=      6.7047154 O_TOT=     22.8943433 <-- SPRD
 Delta: O_D= -0.3714101E-09 O_OD=  0.3708491E-09 O_TOT= -0.5613288E-12 <-- DLTA
 ------------------------------------------------------------------------------
 Cycle:     48
  WF centre and spread    1  ( -0.447968, -0.447968, -0.447968 )     3.06900175
  WF centre and spread    2  ( -0.447968, -0.909531, -0.909531 )     3.06900176
  WF centre and spread    3  ( -0.909531, -0.447968, -0.909530 )     3.06900238
  WF centre and spread    4  ( -0.909530, -0.909530, -0.447968 )     3.06900231
  WF centre and spread    5  (  1.136348,  1.136348,  1.136348 )     2.65458367
  WF centre and spread    6  (  1.136348,  0.221151,  0.221151 )     2.65458366
  WF centre and spread    7  (  0.221151,  1.136348,  0.221151 )     2.65458390
  WF centre and spread    8  (  0.221151,  0.221151,  1.136348 )     2.65458389
  Sum of centres and spreads (  0.000001, -0.000000,  0.000000 )    22.89434332

     48    -0.285E-11     0.0000031361       22.8943433222       0.94  <-- CONV
        O_D=      0.3407857 O_OD=      6.7047154 O_TOT=     22.8943433 <-- SPRD
 Delta: O_D= -0.2102054E-08 O_OD=  0.2099200E-08 O_TOT= -0.2852829E-11 <-- DLTA
 ------------------------------------------------------------------------------
 Cycle:     49
  WF centre and spread    1  ( -0.447968, -0.447968, -0.447968 )     3.06900201
  WF centre and spread    2  ( -0.447968, -0.909531, -0.909531 )     3.06900202
  WF centre and spread    3  ( -0.909530, -0.447968, -0.909530 )     3.06900264
  WF centre and spread    4  ( -0.909530, -0.909530, -0.447968 )     3.06900258
  WF centre and spread    5  (  1.136348,  1.136348,  1.136348 )     2.65458340
  WF centre and spread    6  (  1.136348,  0.221151,  0.221151 )     2.65458340
  WF centre and spread    7  (  0.221151,  1.136348,  0.221151 )     2.65458364
  WF centre and spread    8  (  0.221151,  0.221151,  1.136348 )     2.65458363
  Sum of centres and spreads (  0.000001, -0.000000,  0.000000 )    22.89434332

     49    -0.838E-11     0.0000030188       22.8943433222       0.95  <-- CONV
        O_D=      0.3407857 O_OD=      6.7047154 O_TOT=     22.8943433 <-- SPRD
 Delta: O_D= -0.6571998E-08 O_OD=  0.6563621E-08 O_TOT= -0.8377299E-11 <-- DLTA
 ------------------------------------------------------------------------------
 Cycle:     50
  WF centre and spread    1  ( -0.447968, -0.447968, -0.447968 )     3.06900214
  WF centre and spread    2  ( -0.447968, -0.909531, -0.909531 )     3.06900214
  WF centre and spread    3  ( -0.909530, -0.447968, -0.909530 )     3.06900277
  WF centre and spread    4  ( -0.909530, -0.909530, -0.447968 )     3.06900270
  WF centre and spread    5  (  1.136348,  1.136348,  1.136348 )     2.65458328
  WF centre and spread    6  (  1.136348,  0.221151,  0.221151 )     2.65458327
  WF centre and spread    7  (  0.221151,  1.136348,  0.221151 )     2.65458351
  WF centre and spread    8  (  0.221151,  0.221151,  1.136348 )     2.65458350
  Sum of centres and spreads (  0.000001, -0.000000,  0.000000 )    22.89434332

     50    -0.345E-11     0.0000027804       22.8943433222       0.96  <-- CONV
        O_D=      0.3407857 O_OD=      6.7047154 O_TOT=     22.8943433 <-- SPRD
 Delta: O_D= -0.3173408E-08 O_OD=  0.3169954E-08 O_TOT= -0.3453238E-11 <-- DLTA
 ------------------------------------------------------------------------------
 Cycle:     51
  WF centre and spread    1  ( -0.447968, -0.447968, -0.447968 )     3.06900217
  WF centre and spread    2  ( -0.447968, -0.909531, -0.909531 )     3.06900218
  WF centre and spread    3  ( -0.909530, -0.447968, -0.909530 )     3.06900280
  WF centre and spread    4  ( -0.909530, -0.909530, -0.447968 )     3.06900274
  WF centre and spread    5  (  1.136348,  1.136348,  1.136348 )     2.65458324
  WF centre and spread    6  (  1.136348,  0.221151,  0.221151 )     2.65458324
  WF centre and spread    7  (  0.221151,  1.136348,  0.221151 )     2.65458348
  WF centre and spread    8  (  0.221151,  0.221151,  1.136348 )     2.65458347
  Sum of centres and spreads (  0.000001, -0.000000,  0.000000 )    22.89434332

     51    -0.103E-11     0.0000027266       22.8943433222       0.96  <-- CONV
        O_D=      0.3407857 O_OD=      6.7047154 O_TOT=     22.8943433 <-- SPRD
 Delta: O_D= -0.9642286E-09 O_OD=  0.9632037E-09 O_TOT= -0.1026734E-11 <-- DLTA
 ------------------------------------------------------------------------------
 Cycle:     52
  WF centre and spread    1  ( -0.447968, -0.447968, -0.447968 )     3.06900219
  WF centre and spread    2  ( -0.447968, -0.909531, -0.909531 )     3.06900219
  WF centre and spread    3  ( -0.909530, -0.447968, -0.909530 )     3.06900282
  WF centre and spread    4  ( -0.909530, -0.909530, -0.447968 )     3.06900276
  WF centre and spread    5  (  1.136348,  1.136348,  1.136348 )     2.65458323
  WF centre and spread    6  (  1.136348,  0.221151,  0.221151 )     2.65458322
  WF centre and spread    7  (  0.221151,  1.136348,  0.221151 )     2.65458346
  WF centre and spread    8  (  0.221151,  0.221151,  1.136348 )     2.65458345
  Sum of centres and spreads (  0.000001, -0.000000,  0.000000 )    22.89434332

     52    -0.380E-12     0.0000027141       22.8943433222       0.98  <-- CONV
        O_D=      0.3407857 O_OD=      6.7047154 O_TOT=     22.8943433 <-- SPRD
 Delta: O_D= -0.4483216E-09 O_OD=  0.4479430E-09 O_TOT= -0.3801404E-12 <-- DLTA
 ------------------------------------------------------------------------------
 Cycle:     53
  WF centre and spread    1  ( -0.447968, -0.447968, -0.447968 )     3.06900220
  WF centre and spread    2  ( -0.447968, -0.909531, -0.909531 )     3.06900221
  WF centre and spread    3  ( -0.909530, -0.447968, -0.909530 )     3.06900283
  WF centre and spread    4  ( -0.909530, -0.909530, -0.447968 )     3.06900277
  WF centre and spread    5  (  1.136348,  1.136348,  1.136348 )     2.65458321
  WF centre and spread    6  (  1.136348,  0.221151,  0.221151 )     2.65458321
  WF centre and spread    7  (  0.221151,  1.136348,  0.221151 )     2.65458345
  WF centre and spread    8  (  0.221151,  0.221151,  1.136348 )     2.65458344
  Sum of centres and spreads (  0.000001, -0.000000,  0.000000 )    22.89434332

     53    -0.416E-12     0.0000027057       22.8943433222       0.98  <-- CONV
        O_D=      0.3407857 O_OD=      6.7047154 O_TOT=     22.8943433 <-- SPRD
 Delta: O_D= -0.4034126E-09 O_OD=  0.4029941E-09 O_TOT= -0.4156675E-12 <-- DLTA
 ------------------------------------------------------------------------------
 Cycle:     54
  WF centre and spread    1  ( -0.447968, -0.447968, -0.447968 )     3.06900261
  WF centre and spread    2  ( -0.447968, -0.909531, -0.909531 )     3.06900262
  WF centre and spread    3  ( -0.909530, -0.447968, -0.909530 )     3.06900325
  WF centre and spread    4  ( -0.909530, -0.909530, -0.447968 )     3.06900318
  WF centre and spread    5  (  1.136348,  1.136348,  1.136348 )     2.65458280
  WF centre and spread    6  (  1.136348,  0.221151,  0.221151 )     2.65458280
  WF centre and spread    7  (  0.221151,  1.136348,  0.221151 )     2.65458303
  WF centre and spread    8  (  0.221151,  0.221151,  1.136348 )     2.65458303
  Sum of centres and spreads (  0.000001, -0.000000,  0.000000 )    22.89434332

     54    -0.110E-10     0.0000026983       22.8943433222       0.99  <-- CONV
[...]
  WF centre and spread    7  (  0.221151,  1.136348,  0.221151 )     2.65458057
  WF centre and spread    8  (  0.221151,  0.221151,  1.136348 )     2.65458056
  Sum of centres and spreads (  0.000001, -0.000000,  0.000000 )    22.89434332

     84    -0.298E-12     0.0000016254       22.8943433221       1.24  <-- CONV
        O_D=      0.3407856 O_OD=      6.7047155 O_TOT=     22.8943433 <-- SPRD
 Delta: O_D= -0.1060592E-08 O_OD=  0.1060298E-08 O_TOT= -0.2984279E-12 <-- DLTA
 ------------------------------------------------------------------------------
 Cycle:     85
  WF centre and spread    1  ( -0.447968, -0.447968, -0.447968 )     3.06900508
  WF centre and spread    2  ( -0.447968, -0.909530, -0.909531 )     3.06900509
  WF centre and spread    3  ( -0.909530, -0.447968, -0.909530 )     3.06900574
  WF centre and spread    4  ( -0.909530, -0.909530, -0.447968 )     3.06900568
  WF centre and spread    5  (  1.136348,  1.136348,  1.136348 )     2.65458032
  WF centre and spread    6  (  1.136348,  0.221151,  0.221151 )     2.65458031
  WF centre and spread    7  (  0.221151,  1.136348,  0.221151 )     2.65458055
  WF centre and spread    8  (  0.221151,  0.221151,  1.136348 )     2.65458054
  Sum of centres and spreads (  0.000001, -0.000000,  0.000000 )    22.89434332

     85    -0.281E-12     0.0000016150       22.8943433221       1.24  <-- CONV
        O_D=      0.3407856 O_OD=      6.7047155 O_TOT=     22.8943433 <-- SPRD
 Delta: O_D= -0.6872330E-09 O_OD=  0.6869483E-09 O_TOT= -0.2806644E-12 <-- DLTA
 ------------------------------------------------------------------------------
 Cycle:     86
  WF centre and spread    1  ( -0.447968, -0.447968, -0.447968 )     3.06900511
  WF centre and spread    2  ( -0.447968, -0.909530, -0.909531 )     3.06900511
  WF centre and spread    3  ( -0.909530, -0.447968, -0.909530 )     3.06900576
  WF centre and spread    4  ( -0.909530, -0.909530, -0.447968 )     3.06900570
  WF centre and spread    5  (  1.136348,  1.136348,  1.136348 )     2.65458030
  WF centre and spread    6  (  1.136348,  0.221151,  0.221151 )     2.65458029
  WF centre and spread    7  (  0.221151,  1.136348,  0.221151 )     2.65458053
  WF centre and spread    8  (  0.221151,  0.221151,  1.136348 )     2.65458052
  Sum of centres and spreads (  0.000001, -0.000000,  0.000000 )    22.89434332

     86    -0.362E-12     0.0000016084       22.8943433221       1.25  <-- CONV
        O_D=      0.3407856 O_OD=      6.7047155 O_TOT=     22.8943433 <-- SPRD
 Delta: O_D= -0.8546288E-09 O_OD=  0.8542687E-09 O_TOT= -0.3623768E-12 <-- DLTA
 ------------------------------------------------------------------------------
 Cycle:     87
  WF centre and spread    1  ( -0.447968, -0.447968, -0.447968 )     3.06900513
  WF centre and spread    2  ( -0.447968, -0.909530, -0.909531 )     3.06900514
  WF centre and spread    3  ( -0.909530, -0.447968, -0.909530 )     3.06900579
  WF centre and spread    4  ( -0.909530, -0.909530, -0.447968 )     3.06900573
  WF centre and spread    5  (  1.136348,  1.136348,  1.136348 )     2.65458027
  WF centre and spread    6  (  1.136348,  0.221151,  0.221151 )     2.65458027
  WF centre and spread    7  (  0.221151,  1.136348,  0.221151 )     2.65458050
  WF centre and spread    8  (  0.221151,  0.221151,  1.136348 )     2.65458050
  Sum of centres and spreads (  0.000001, -0.000000,  0.000000 )    22.89434332

     87    -0.494E-12     0.0000016005       22.8943433221       1.26  <-- CONV
        O_D=      0.3407856 O_OD=      6.7047155 O_TOT=     22.8943433 <-- SPRD
 Delta: O_D= -0.1018638E-08 O_OD=  0.1018142E-08 O_TOT= -0.4938272E-12 <-- DLTA
 ------------------------------------------------------------------------------
 Cycle:     88
  WF centre and spread    1  ( -0.447968, -0.447968, -0.447968 )     3.06900513
  WF centre and spread    2  ( -0.447968, -0.909530, -0.909531 )     3.06900514
  WF centre and spread    3  ( -0.909530, -0.447968, -0.909530 )     3.06900579
  WF centre and spread    4  ( -0.909530, -0.909530, -0.447968 )     3.06900573
  WF centre and spread    5  (  1.136348,  1.136348,  1.136348 )     2.65458027
  WF centre and spread    6  (  1.136348,  0.221151,  0.221151 )     2.65458026
  WF centre and spread    7  (  0.221151,  1.136348,  0.221151 )     2.65458050
  WF centre and spread    8  (  0.221151,  0.221151,  1.136348 )     2.65458049
  Sum of centres and spreads (  0.000001, -0.000000,  0.000000 )    22.89434332

     88     0.533E-13     0.0000015912       22.8943433221       1.26  <-- CONV
        O_D=      0.3407856 O_OD=      6.7047155 O_TOT=     22.8943433 <-- SPRD
 Delta: O_D= -0.6536882E-10 O_OD=  0.6542589E-10 O_TOT=  0.5329071E-13 <-- DLTA
 ------------------------------------------------------------------------------
 Cycle:     89
  WF centre and spread    1  ( -0.447968, -0.447968, -0.447968 )     3.06900514
  WF centre and spread    2  ( -0.447968, -0.909530, -0.909531 )     3.06900515
  WF centre and spread    3  ( -0.909530, -0.447968, -0.909530 )     3.06900580
  WF centre and spread    4  ( -0.909530, -0.909530, -0.447968 )     3.06900574
  WF centre and spread    5  (  1.136348,  1.136348,  1.136348 )     2.65458026
  WF centre and spread    6  (  1.136348,  0.221151,  0.221151 )     2.65458026
  WF centre and spread    7  (  0.221151,  1.136348,  0.221151 )     2.65458049
  WF centre and spread    8  (  0.221151,  0.221151,  1.136348 )     2.65458049
  Sum of centres and spreads (  0.000001, -0.000000,  0.000000 )    22.89434332

     89    -0.188E-12     0.0000015906       22.8943433221       1.27  <-- CONV
        O_D=      0.3407856 O_OD=      6.7047155 O_TOT=     22.8943433 <-- SPRD
 Delta: O_D= -0.3435002E-09 O_OD=  0.3433129E-09 O_TOT= -0.1882938E-12 <-- DLTA
 ------------------------------------------------------------------------------
 Cycle:     90
  WF centre and spread    1  ( -0.447968, -0.447968, -0.447968 )     3.06900515
  WF centre and spread    2  ( -0.447968, -0.909530, -0.909531 )     3.06900516
  WF centre and spread    3  ( -0.909530, -0.447968, -0.909530 )     3.06900581
  WF centre and spread    4  ( -0.909530, -0.909530, -0.447968 )     3.06900575
  WF centre and spread    5  (  1.136348,  1.136348,  1.136348 )     2.65458025
  WF centre and spread    6  (  1.136348,  0.221151,  0.221151 )     2.65458024
  WF centre and spread    7  (  0.221151,  1.136348,  0.221151 )     2.65458048
  WF centre and spread    8  (  0.221151,  0.221151,  1.136348 )     2.65458047
  Sum of centres and spreads (  0.000001, -0.000000,  0.000000 )    22.89434332

     90    -0.220E-12     0.0000015877       22.8943433221       1.28  <-- CONV
        O_D=      0.3407856 O_OD=      6.7047155 O_TOT=     22.8943433 <-- SPRD
 Delta: O_D= -0.5137551E-09 O_OD=  0.5135323E-09 O_TOT= -0.2202682E-12 <-- DLTA
 ------------------------------------------------------------------------------
 Cycle:     91
  WF centre and spread    1  ( -0.447968, -0.447968, -0.447968 )     3.06900520
  WF centre and spread    2  ( -0.447968, -0.909530, -0.909531 )     3.06900520
  WF centre and spread    3  ( -0.909530, -0.447968, -0.909530 )     3.06900586
  WF centre and spread    4  ( -0.909530, -0.909530, -0.447968 )     3.06900579
  WF centre and spread    5  (  1.136348,  1.136348,  1.136348 )     2.65458020
  WF centre and spread    6  (  1.136348,  0.221151,  0.221151 )     2.65458020
  WF centre and spread    7  (  0.221151,  1.136348,  0.221151 )     2.65458044
  WF centre and spread    8  (  0.221151,  0.221151,  1.136348 )     2.65458043
  Sum of centres and spreads (  0.000001, -0.000000,  0.000000 )    22.89434332

     91    -0.586E-12     0.0000015832       22.8943433221       1.29  <-- CONV
        O_D=      0.3407856 O_OD=      6.7047155 O_TOT=     22.8943433 <-- SPRD
 Delta: O_D= -0.1792219E-08 O_OD=  0.1791635E-08 O_TOT= -0.5861978E-12 <-- DLTA
 ------------------------------------------------------------------------------
 Cycle:     92
  WF centre and spread    1  ( -0.447968, -0.447968, -0.447968 )     3.06900522
  WF centre and spread    2  ( -0.447968, -0.909530, -0.909531 )     3.06900523
  WF centre and spread    3  ( -0.909530, -0.447968, -0.909530 )     3.06900588
  WF centre and spread    4  ( -0.909530, -0.909530, -0.447968 )     3.06900582
  WF centre and spread    5  (  1.136348,  1.136348,  1.136348 )     2.65458018
  WF centre and spread    6  (  1.136348,  0.221151,  0.221151 )     2.65458018
  WF centre and spread    7  (  0.221151,  1.136348,  0.221151 )     2.65458042
  WF centre and spread    8  (  0.221151,  0.221151,  1.136348 )     2.65458041
  Sum of centres and spreads (  0.000001, -0.000000,  0.000000 )    22.89434332

     92    -0.423E-12     0.0000015677       22.8943433221       1.30  <-- CONV
        O_D=      0.3407855 O_OD=      6.7047155 O_TOT=     22.8943433 <-- SPRD
 Delta: O_D= -0.8387059E-09 O_OD=  0.8382788E-09 O_TOT= -0.4227729E-12 <-- DLTA
 ------------------------------------------------------------------------------
 Cycle:     93
  WF centre and spread    1  ( -0.447968, -0.447968, -0.447968 )     3.06900527
  WF centre and spread    2  ( -0.447968, -0.909530, -0.909531 )     3.06900527
  WF centre and spread    3  ( -0.909530, -0.447968, -0.909530 )     3.06900593
  WF centre and spread    4  ( -0.909530, -0.909530, -0.447968 )     3.06900586
  WF centre and spread    5  (  1.136348,  1.136348,  1.136348 )     2.65458013
  WF centre and spread    6  (  1.136348,  0.221151,  0.221151 )     2.65458013
  WF centre and spread    7  (  0.221151,  1.136348,  0.221151 )     2.65458037
  WF centre and spread    8  (  0.221151,  0.221151,  1.136348 )     2.65458036
  Sum of centres and spreads (  0.000001, -0.000000,  0.000000 )    22.89434332

     93    -0.703E-12     0.0000015605       22.8943433221       1.30  <-- CONV
        O_D=      0.3407855 O_OD=      6.7047155 O_TOT=     22.8943433 <-- SPRD
 Delta: O_D= -0.1891055E-08 O_OD=  0.1890352E-08 O_TOT= -0.7034373E-12 <-- DLTA
 ------------------------------------------------------------------------------
 Cycle:     94
  WF centre and spread    1  ( -0.447968, -0.447968, -0.447968 )     3.06900527
  WF centre and spread    2  ( -0.447968, -0.909530, -0.909531 )     3.06900528
  WF centre and spread    3  ( -0.909530, -0.447968, -0.909530 )     3.06900594
  WF centre and spread    4  ( -0.909530, -0.909530, -0.447968 )     3.06900587
  WF centre and spread    5  (  1.136348,  1.136348,  1.136348 )     2.65458013
  WF centre and spread    6  (  1.136348,  0.221151,  0.221151 )     2.65458012
  WF centre and spread    7  (  0.221151,  1.136348,  0.221151 )     2.65458036
  WF centre and spread    8  (  0.221151,  0.221151,  1.136348 )     2.65458035
  Sum of centres and spreads (  0.000001, -0.000000,  0.000000 )    22.89434332

     94    -0.995E-13     0.0000015444       22.8943433221       1.32  <-- CONV
        O_D=      0.3407855 O_OD=      6.7047155 O_TOT=     22.8943433 <-- SPRD
 Delta: O_D= -0.3031811E-09 O_OD=  0.3030829E-09 O_TOT= -0.9947598E-13 <-- DLTA
 ------------------------------------------------------------------------------
 Cycle:     95
  WF centre and spread    1  ( -0.447968, -0.447968, -0.447968 )     3.06900528
  WF centre and spread    2  ( -0.447968, -0.909530, -0.909531 )     3.06900529
  WF centre and spread    3  ( -0.909530, -0.447968, -0.909530 )     3.06900594
  WF centre and spread    4  ( -0.909530, -0.909530, -0.447968 )     3.06900588
  WF centre and spread    5  (  1.136348,  1.136348,  1.136348 )     2.65458012
  WF centre and spread    6  (  1.136348,  0.221151,  0.221151 )     2.65458011
  WF centre and spread    7  (  0.221151,  1.136348,  0.221151 )     2.65458035
  WF centre and spread    8  (  0.221151,  0.221151,  1.136348 )     2.65458034
  Sum of centres and spreads (  0.000001, -0.000000,  0.000000 )    22.89434332

     95    -0.210E-12     0.0000015419       22.8943433221       1.32  <-- CONV
        O_D=      0.3407855 O_OD=      6.7047155 O_TOT=     22.8943433 <-- SPRD
 Delta: O_D= -0.3350567E-09 O_OD=  0.3348486E-09 O_TOT= -0.2096101E-12 <-- DLTA
 ------------------------------------------------------------------------------
 Cycle:     96
  WF centre and spread    1  ( -0.447968, -0.447968, -0.447968 )     3.06900530
  WF centre and spread    2  ( -0.447968, -0.909530, -0.909531 )     3.06900530
  WF centre and spread    3  ( -0.909530, -0.447968, -0.909530 )     3.06900596
  WF centre and spread    4  ( -0.909530, -0.909530, -0.447968 )     3.06900589
  WF centre and spread    5  (  1.136348,  1.136348,  1.136348 )     2.65458010
  WF centre and spread    6  (  1.136348,  0.221151,  0.221151 )     2.65458010
  WF centre and spread    7  (  0.221151,  1.136348,  0.221151 )     2.65458034
  WF centre and spread    8  (  0.221151,  0.221151,  1.136348 )     2.65458033
  Sum of centres and spreads (  0.000001, -0.000000,  0.000000 )    22.89434332

     96    -0.568E-13     0.0000015391       22.8943433221       1.33  <-- CONV
        O_D=      0.3407855 O_OD=      6.7047155 O_TOT=     22.8943433 <-- SPRD
 Delta: O_D= -0.5964289E-09 O_OD=  0.5963727E-09 O_TOT= -0.5684342E-13 <-- DLTA
 ------------------------------------------------------------------------------
 Cycle:     97
  WF centre and spread    1  ( -0.447968, -0.447968, -0.447968 )     3.06900531
  WF centre and spread    2  ( -0.447968, -0.909530, -0.909531 )     3.06900532
  WF centre and spread    3  ( -0.909530, -0.447968, -0.909530 )     3.06900598
  WF centre and spread    4  ( -0.909530, -0.909530, -0.447968 )     3.06900591
  WF centre and spread    5  (  1.136348,  1.136348,  1.136348 )     2.65458009
  WF centre and spread    6  (  1.136348,  0.221151,  0.221151 )     2.65458008
  WF centre and spread    7  (  0.221151,  1.136348,  0.221151 )     2.65458032
  WF centre and spread    8  (  0.221151,  0.221151,  1.136348 )     2.65458031
  Sum of centres and spreads (  0.000001, -0.000000,  0.000000 )    22.89434332

     97    -0.373E-12     0.0000015340       22.8943433221       1.34  <-- CONV
        O_D=      0.3407855 O_OD=      6.7047155 O_TOT=     22.8943433 <-- SPRD
 Delta: O_D= -0.6649293E-09 O_OD=  0.6645537E-09 O_TOT= -0.3730349E-12 <-- DLTA
 ------------------------------------------------------------------------------
 Cycle:     98
  WF centre and spread    1  ( -0.447968, -0.447968, -0.447968 )     3.06900533
  WF centre and spread    2  ( -0.447968, -0.909530, -0.909531 )     3.06900534
  WF centre and spread    3  ( -0.909530, -0.447968, -0.909530 )     3.06900600
  WF centre and spread    4  ( -0.909530, -0.909530, -0.447968 )     3.06900593
  WF centre and spread    5  (  1.136348,  1.136348,  1.136348 )     2.65458007
  WF centre and spread    6  (  1.136348,  0.221151,  0.221151 )     2.65458006
  WF centre and spread    7  (  0.221151,  1.136348,  0.221151 )     2.65458030
  WF centre and spread    8  (  0.221151,  0.221151,  1.136348 )     2.65458029
  Sum of centres and spreads (  0.000001, -0.000000,  0.000000 )    22.89434332

     98    -0.398E-12     0.0000015284       22.8943433221       1.34  <-- CONV
        O_D=      0.3407855 O_OD=      6.7047155 O_TOT=     22.8943433 <-- SPRD
 Delta: O_D= -0.8265054E-09 O_OD=  0.8261054E-09 O_TOT= -0.3979039E-12 <-- DLTA
 ------------------------------------------------------------------------------
 Cycle:     99
  WF centre and spread    1  ( -0.447968, -0.447968, -0.447968 )     3.06900536
  WF centre and spread    2  ( -0.447968, -0.909530, -0.909531 )     3.06900537
  WF centre and spread    3  ( -0.909530, -0.447968, -0.909530 )     3.06900602
  WF centre and spread    4  ( -0.909530, -0.909530, -0.447968 )     3.06900596
  WF centre and spread    5  (  1.136348,  1.136348,  1.136348 )     2.65458004
  WF centre and spread    6  (  1.136348,  0.221151,  0.221151 )     2.65458003
  WF centre and spread    7  (  0.221151,  1.136348,  0.221151 )     2.65458027
  WF centre and spread    8  (  0.221151,  0.221151,  1.136348 )     2.65458027
  Sum of centres and spreads (  0.000001, -0.000000,  0.000000 )    22.89434332

     99    -0.153E-12     0.0000015215       22.8943433221       1.35  <-- CONV
        O_D=      0.3407855 O_OD=      6.7047155 O_TOT=     22.8943433 <-- SPRD
 Delta: O_D= -0.1047551E-08 O_OD=  0.1047402E-08 O_TOT= -0.1527667E-12 <-- DLTA
 ------------------------------------------------------------------------------
 Cycle:    100
  WF centre and spread    1  ( -0.447968, -0.447968, -0.447968 )     3.06900536
  WF centre and spread    2  ( -0.447968, -0.909530, -0.909531 )     3.06900537
  WF centre and spread    3  ( -0.909530, -0.447968, -0.909530 )     3.06900603
  WF centre and spread    4  ( -0.909530, -0.909530, -0.447968 )     3.06900596
  WF centre and spread    5  (  1.136348,  1.136348,  1.136348 )     2.65458004
  WF centre and spread    6  (  1.136348,  0.221151,  0.221151 )     2.65458003
  WF centre and spread    7  (  0.221151,  1.136348,  0.221151 )     2.65458027
  WF centre and spread    8  (  0.221151,  0.221151,  1.136348 )     2.65458026
  Sum of centres and spreads (  0.000001, -0.000000,  0.000000 )    22.89434332

    100    -0.185E-12     0.0000015127       22.8943433221       1.36  <-- CONV
        O_D=      0.3407855 O_OD=      6.7047155 O_TOT=     22.8943433 <-- SPRD
 Delta: O_D= -0.1649247E-09 O_OD=  0.1647393E-09 O_TOT= -0.1847411E-12 <-- DLTA
 ------------------------------------------------------------------------------

 Writing checkpoint file silicon.chk... done

 Final State
  WF centre and spread    1  ( -0.447968, -0.447968, -0.447968 )     3.06900536
  WF centre and spread    2  ( -0.447968, -0.909530, -0.909531 )     3.06900537
  WF centre and spread    3  ( -0.909530, -0.447968, -0.909530 )     3.06900603
  WF centre and spread    4  ( -0.909530, -0.909530, -0.447968 )     3.06900596
  WF centre and spread    5  (  1.136348,  1.136348,  1.136348 )     2.65458004
  WF centre and spread    6  (  1.136348,  0.221151,  0.221151 )     2.65458003
  WF centre and spread    7  (  0.221151,  1.136348,  0.221151 )     2.65458027
  WF centre and spread    8  (  0.221151,  0.221151,  1.136348 )     2.65458026
  Sum of centres and spreads (  0.000001, -0.000000,  0.000000 )    22.89434332

         Spreads (Ang^2)       Omega I      =    15.848842303
        ================       Omega D      =     0.340785544
                               Omega OD     =     6.704715476
    Final Spread (Ang^2)       Omega Total  =    22.894343322
 ------------------------------------------------------------------------------
 Time for wannierise            0.896 (sec)

 Writing checkpoint file silicon.chk... done

 *---------------------------------------------------------------------------*
 |                               PLOTTING                                    |
 *---------------------------------------------------------------------------*


 Calculating interpolated band-structure

 Time to calculate interpolated band structure       0.020 (sec)

 Time for plotting              0.024 (sec)
 Total Execution Time           1.396 (sec)

 *===========================================================================*
 |                             TIMING INFORMATION                            |
 *===========================================================================*
 |    Tag                                                Ncalls      Time (s)|
 |---------------------------------------------------------------------------|
 |kmesh: get                                        :         1         0.100|
 |overlap: read                                     :         1         0.164|
 |dis: main                                         :         1         0.192|
 |wann: main                                        :         1         0.896|
 |plot: main                                        :         1         0.024|
 *---------------------------------------------------------------------------*

 All done: wannier90 exiting
