
     Program PWSCF v.4.3.2      starts on 24Feb2012 at 16:13:34 

     This program is part of the open-source Quantum ESPRESSO suite
     for quantum simulation of materials; please cite
         "P. Giannozzi et al., J. Phys.:Condens. Matter 21 395502 (2009);
          URL http://www.quantum-espresso.org", 
     in publications or presentations arising from this work. More details at
     http://www.quantum-espresso.org/wiki/index.php/Citing_Quantum-ESPRESSO

     Parallel version (MPI & OpenMP), running on     8 processor cores
     Number of MPI processes:               8
     Threads/MPI process:                  1
     R & G space division:  proc/pool =    8

     EXPERIMENTAL VERSION WITH EXACT EXCHANGE

     Current dimensions of program PWSCF are:
     Max number of different atomic species (ntypx) = 10
     Max number of k-points (npk) =  40000
     Max angular momentum in pseudopotentials (lmaxx) =  3
     Reading input from ./in

     Atomic positions and unit cell read from directory:
     ./silicon.save/
     Nothing found: using input atomic positions and unit cell


     Subspace diagonalization in iterative solution of the eigenvalue problem:
     parallel, distributed-memory algorithm (size of sub-group:  2*  2 procs)

 
     Parallelization info
     --------------------
     sticks:   dense  smooth     PW     G-vecs:    dense   smooth      PW
     Min          45      45     17                  570      570     132
     Max          46      46     18                  573      573     134
     Sum         361     361    139                 4573     4573    1067
 


     bravais-lattice index     =            0
     lattice parameter (alat)  =      10.2612  a.u.
     unit-cell volume          =     270.1061 (a.u.)^3
     number of atoms/cell      =            2
     number of atomic types    =            1
     number of electrons       =         8.00
     number of Kohn-Sham states=            4
     kinetic-energy cutoff     =      25.0000  Ry
     charge density cutoff     =     100.0000  Ry
     Exchange-correlation      = PZ ( 1 1 0 0 0)
     EXX-fraction              =        0.00

     celldm(1)=  10.261200  celldm(2)=   0.000000  celldm(3)=   0.000000
     celldm(4)=   0.000000  celldm(5)=   0.000000  celldm(6)=   0.000000

     crystal axes: (cart. coord. in units of alat)
               a(1) = (   0.000000   0.500000   0.500000 )  
               a(2) = (   0.500000   0.000000   0.500000 )  
               a(3) = (   0.500000   0.500000   0.000000 )  

     reciprocal axes: (cart. coord. in units 2 pi/alat)
               b(1) = ( -1.000000  1.000000  1.000000 )  
               b(2) = (  1.000000 -1.000000  1.000000 )  
               b(3) = (  1.000000  1.000000 -1.000000 )  


     PseudoPot. # 1 for Si read from file:
     ./Si.UPF
     MD5 check sum: 8d0500bb3b5099e4a124109e930844dd
     Pseudo is Norm-conserving, Zval =  4.0
     Generated using "atomic" code by A. Dal Corso  (Quantum ESPRESSO distribution)
     Using radial grid of 1141 points,  2 beta functions with: 
                l(1) =   0
                l(2) =   1

     atomic species   valence    mass     pseudopotential
        Si             4.00    28.08600     Si( 1.00)

     48 Sym.Ops. (with inversion)


   Cartesian axes

     site n.     atom                  positions (alat units)
         1           Si  tau(   1) = (  -0.1250000  -0.1250000  -0.1250000  )
         2           Si  tau(   2) = (   0.1250000   0.1250000   0.1250000  )

     number of k points=  1000

     Number of k-points >= 100: set verbosity='high' to print them.

     Dense  grid:     4573 G-vectors     FFT dimensions: (  24,  24,  24)

     Largest allocated arrays     est. size (Mb)     dimensions
        Kohn-Sham Wavefunctions         0.01 Mb     (     84,    4)
        NL pseudopotentials             0.01 Mb     (     84,    8)
        Each V/rho on FFT grid          0.03 Mb     (   1728)
        Each G-vector array             0.00 Mb     (    572)
        G-vector shells                 0.00 Mb     (     87)
     Largest temporary arrays     est. size (Mb)     dimensions
        Auxiliary wavefunctions         0.02 Mb     (     84,   16)
        Each subspace H/S matrix        0.00 Mb     (   8,   8)
        Each <psi_i|beta_j> matrix      0.00 Mb     (      8,    4)
     writing wfc files to a dedicated directory

     The potential is recalculated from file :
     ./silicon.save/charge-density.dat

     Starting wfc are random

     total cpu time spent up to now is        0.2 secs

     per-process dynamical memory:     2.4 Mb

     Band Structure Calculation
     Davidson diagonalization with overlap

     ethr =  1.25E-12,  avg # of iterations = 20.0

     total cpu time spent up to now is       38.5 secs

     End of band structure calculation

          k = 0.0220 0.0420 0.0520     band energies (ev):

    -5.8743   5.7774   5.9382   5.9876

          k = 0.1220 0.1420-0.0480     band energies (ev):

    -5.7329   4.7584   5.5106   5.8928

          k = 0.2220 0.2420-0.1480     band energies (ev):

    -5.3359   2.9396   5.0824   5.5528

          k = 0.3220 0.3420-0.2480     band energies (ev):

    -4.7110   1.1769   4.7745   5.1874

          k = 0.4220 0.4420-0.3480     band energies (ev):

    -3.9587  -0.2790   4.6220   4.9131

          k = 0.5220 0.5420-0.4480     band energies (ev):

    -3.5296  -0.9325   4.6237   4.7727

          k = 0.6220 0.6420-0.5480     band energies (ev):

    -4.0172  -0.1817   4.7293   4.8243

          k = 0.7220 0.7420-0.6480     band energies (ev):

    -4.7679   1.3096   4.9040   5.0943

          k = 0.8220 0.8420-0.7480     band energies (ev):

    -5.3764   3.0883   5.2143   5.4695

          k = 0.9220 0.9420-0.8480     band energies (ev):

    -5.7537   4.9085   5.6193   5.8095

          k = 0.1220-0.0580 0.1520     band energies (ev):

    -5.7155   4.6485   5.4996   5.8625

          k = 0.2220 0.0420 0.0520     band energies (ev):

    -5.6610   4.6510   5.3307   5.4591

          k = 0.3220 0.1420-0.0480     band energies (ev):

    -5.3485   3.4338   4.6155   5.2556

          k = 0.4220 0.2420-0.1480     band energies (ev):

    -4.7954   1.7527   4.1872   4.8896

          k = 0.5220 0.3420-0.2480     band energies (ev):

    -4.0640   0.2125   3.9223   4.5793

          k = 0.6220 0.4420-0.3480     band energies (ev):

    -3.4308  -0.7902   3.7512   4.4886

          k = 0.7220 0.5420-0.4480     band energies (ev):

    -3.6406  -0.4821   3.6806   4.6396

          k = 0.8220 0.6420-0.5480     band energies (ev):

    -4.3815   0.8175   3.7695   4.9673

          k = 0.9220 0.7420-0.6480     band energies (ev):

    -5.0523   2.4375   4.0797   5.3727

          k = 1.0220 0.8420-0.7480     band energies (ev):

    -5.5090   3.8930   4.8132   5.6601

          k = 0.2220-0.1580 0.2520     band energies (ev):

    -5.3021   2.8172   5.0825   5.5115

          k = 0.3220-0.0580 0.1520     band energies (ev):

    -5.3316   3.3378   4.6092   5.2774

          k = 0.4220 0.0420 0.0520     band energies (ev):

    -5.1035   3.1050   4.4179   4.4557

          k = 0.5220 0.1420-0.0480     band energies (ev):

    -4.6283   2.0075   3.7393   4.2014

          k = 0.6220 0.2420-0.1480     band energies (ev):

    -3.9447   0.6596   3.1485   3.9464

          k = 0.7220 0.3420-0.2480     band energies (ev):

    -3.2127  -0.4776   2.6741   3.9315

          k = 0.8220 0.4420-0.3480     band energies (ev):

    -3.0995  -0.6255   2.3987   4.1513

          k = 0.9220 0.5420-0.4480     band energies (ev):

    -3.7764   0.3688   2.4180   4.5496

          k = 1.0220 0.6420-0.5480     band energies (ev):

    -4.4911   1.4903   2.9923   5.0191

          k = 1.1220 0.7420-0.6480     band energies (ev):

    -5.0169   2.2092   4.3085   5.3166

          k = 0.3220-0.2580 0.3520     band energies (ev):

    -4.6641   1.0670   4.7843   5.1514

          k = 0.4220-0.1580 0.2520     band energies (ev):

    -4.7637   1.6425   4.2033   4.9044

          k = 0.5220-0.0580 0.1520     band energies (ev):

    -4.6126   1.9483   3.7166   4.2166

          k = 0.6220 0.0420 0.0520     band energies (ev):

    -4.2151   1.4049   3.6364   3.7325

          k = 0.7220 0.1420-0.0480     band energies (ev):

    -3.5943   0.4602   3.0864   3.4596

          k = 0.8220 0.2420-0.1480     band energies (ev):

    -2.8396  -0.4853   2.2586   3.4366

          k = 0.9220 0.3420-0.2480     band energies (ev):

    -2.4579  -0.8921   1.7053   3.6492

          k = 1.0220 0.4420-0.3480     band energies (ev):

    -3.0375  -0.3079   1.7425   4.0551

          k = 1.1220 0.5420-0.4480     band energies (ev):

    -3.7571   0.1956   2.6445   4.5624

          k = 1.2220 0.6420-0.5480     band energies (ev):

    -4.3210   0.5797   4.0524   4.9347

          k = 0.4220-0.3580 0.4520     band energies (ev):

    -3.9122  -0.3576   4.6389   4.8900

          k = 0.5220-0.2580 0.3520     band energies (ev):

    -4.0256   0.1182   3.9558   4.5998

          k = 0.6220-0.1580 0.2520     band energies (ev):

    -3.9182   0.5805   3.1495   3.9688

          k = 0.7220-0.0580 0.1520     band energies (ev):

    -3.5812   0.4393   3.0303   3.4715

          k = 0.8220 0.0420 0.0520     band energies (ev):

    -3.0227  -0.3069   3.1678   3.3011

          k = 0.9220 0.1420-0.0480     band energies (ev):

    -2.2885  -1.1215   2.7566   3.1251

          k = 1.0220 0.2420-0.1480     band energies (ev):

    -1.9700  -1.3629   1.9832   3.3006

          k = 1.1220 0.3420-0.2480     band energies (ev):

    -2.5812  -0.8284   1.8459   3.6838

          k = 1.2220 0.4420-0.3480     band energies (ev):

    -3.1438  -0.7174   2.6850   4.2050

          k = 1.3220 0.5420-0.4480     band energies (ev):

    -3.6036  -0.6391   3.9723   4.6658

          k = 0.5220-0.4580 0.5520     band energies (ev):

    -3.5366  -0.9250   4.6374   4.7736

          k = 0.6220-0.3580 0.4520     band energies (ev):

    -3.4240  -0.8238   3.8027   4.5151

          k = 0.7220-0.2580 0.3520     band energies (ev):

    -3.1984  -0.5309   2.7004   3.9653

          k = 0.8220-0.1580 0.2520     band energies (ev):

    -2.8263  -0.5092   2.2176   3.4629

          k = 0.9220-0.0580 0.1520     band energies (ev):

    -2.2815  -1.1200   2.6802   3.1390

          k = 1.0220 0.0420 0.0520     band energies (ev):

    -1.9114  -1.5722   3.0355   3.1783

          k = 1.1220 0.1420-0.0480     band energies (ev):

    -2.5958  -0.7786   2.7980   3.1658

          k = 1.2220 0.2420-0.1480     band energies (ev):

    -3.0992  -0.2218   2.4110   3.5144

          k = 1.3220 0.3420-0.2480     band energies (ev):

    -3.4084  -0.3493   2.9580   4.0390

          k = 1.4220 0.4420-0.3480     band energies (ev):

    -3.5418  -0.7300   4.0163   4.5971

          k = 0.6220-0.5580 0.6520     band energies (ev):

    -4.0683  -0.0976   4.7219   4.8664

          k = 0.7220-0.4580 0.5520     band energies (ev):

    -3.6966  -0.4212   3.7492   4.6701

          k = 0.8220-0.3580 0.4520     band energies (ev):

    -3.1530  -0.5869   2.4476   4.1944

          k = 0.9220-0.2580 0.3520     band energies (ev):

    -2.5028  -0.8554   1.7020   3.6877

          k = 1.0220-0.1580 0.2520     band energies (ev):

    -1.9948  -1.3306   1.9236   3.3279

          k = 1.1220-0.0580 0.1520     band energies (ev):

    -2.5868  -0.7810   2.7240   3.1793

          k = 1.2220 0.0420 0.0520     band energies (ev):

    -3.3092   0.0643   3.2422   3.3701

          k = 1.3220 0.1420-0.0480     band energies (ev):

    -3.8468   0.8088   3.2054   3.5868

          k = 1.4220 0.2420-0.1480     band energies (ev):

    -4.1564   0.8979   3.3853   4.1184

          k = 1.5220 0.3420-0.2480     band energies (ev):

    -4.2284   0.4018   4.1463   4.7689

          k = 0.7220-0.6580 0.7520     band energies (ev):

    -4.8159   1.4213   4.9068   5.1444

          k = 0.8220-0.5580 0.6520     band energies (ev):

    -4.4436   0.9167   3.8529   4.9990

          k = 0.9220-0.4580 0.5520     band energies (ev):

    -3.8494   0.4557   2.4858   4.5978

          k = 1.0220-0.3580 0.4520     band energies (ev):

    -3.1117  -0.2346   1.7787   4.1020

          k = 1.1220-0.2580 0.3520     band energies (ev):

    -2.6113  -0.8131   1.8491   3.7217

          k = 1.2220-0.1580 0.2520     band energies (ev):

    -3.0815  -0.2589   2.3791   3.5401

          k = 1.3220-0.0580 0.1520     band energies (ev):

    -3.8331   0.7809   3.1565   3.5983

          k = 1.4220 0.0420 0.0520     band energies (ev):

    -4.4377   1.7847   3.7836   3.8670

          k = 1.5220 0.1420-0.0480     band energies (ev):

    -4.8146   2.3316   3.9168   4.4175

          k = 1.6220 0.2420-0.1480     band energies (ev):

    -4.9421   2.0037   4.3969   5.1151

          k = 0.8220-0.7580 0.8520     band energies (ev):

    -5.4105   3.2120   5.2294   5.5192

          k = 0.9220-0.6580 0.7520     band energies (ev):

    -5.1026   2.5567   4.1730   5.4011

          k = 1.0220-0.5580 0.6520     band energies (ev):

    -4.5554   1.5978   3.0763   5.0633

          k = 1.1220-0.4580 0.5520     band energies (ev):

    -3.8281   0.2782   2.7143   4.6085

          k = 1.2220-0.3580 0.4520     band energies (ev):

    -3.1857  -0.6939   2.7365   4.2458

          k = 1.3220-0.2580 0.3520     band energies (ev):

    -3.3864  -0.4155   2.9885   4.0708

          k = 1.4220-0.1580 0.2520     band energies (ev):

    -4.1284   0.8097   3.3931   4.1397

          k = 1.5220-0.0580 0.1520     band energies (ev):

    -4.7985   2.2631   3.8998   4.4352

          k = 1.6220 0.0420 0.0520     band energies (ev):

    -5.2551   3.4639   4.6150   4.6596

          k = 1.7220 0.1420-0.0480     band energies (ev):

    -5.4622   3.7344   4.8246   5.4789

          k = 0.9220-0.8580 0.9520     band energies (ev):

    -5.7711   5.0192   5.6406   5.8474

          k = 1.0220-0.7580 0.8520     band energies (ev):

    -5.5435   4.0232   4.9023   5.6775

          k = 1.1220-0.6580 0.7520     band energies (ev):

    -5.0669   2.3265   4.3992   5.3405

          k = 1.2220-0.5580 0.6520     band energies (ev):

    -4.3817   0.6764   4.1322   4.9596

          k = 1.3220-0.4580 0.5520     band energies (ev):

    -3.6521  -0.5870   4.0372   4.6892

          k = 1.4220-0.3580 0.4520     band energies (ev):

    -3.5230  -0.7769   4.0639   4.6173

          k = 1.5220-0.2580 0.3520     band energies (ev):

    -4.1873   0.3028   4.1766   4.7838

          k = 1.6220-0.1580 0.2520     band energies (ev):

    -4.9097   1.8896   4.4116   5.1244

          k = 1.7220-0.0580 0.1520     band energies (ev):

    -5.4452   3.6333   4.8190   5.4965

          k = 1.8220 0.0420 0.0520     band energies (ev):

    -5.7378   4.9527   5.5259   5.6651

          k =-0.0780 0.1420 0.1520     band energies (ev):

    -5.6808   4.4210   5.4892   5.8291

          k = 0.0220 0.2420 0.0520     band energies (ev):

    -5.6261   4.5744   5.2079   5.3596

          k = 0.1220 0.3420-0.0480     band energies (ev):

    -5.3135   3.4053   4.5979   5.0751

          k = 0.2220 0.4420-0.1480     band energies (ev):

    -4.7605   1.7489   4.1646   4.7140

          k = 0.3220 0.5420-0.2480     band energies (ev):

    -4.0292   0.2214   3.8473   4.4480

          k = 0.4220 0.6420-0.3480     band energies (ev):

    -3.3959  -0.7758   3.6033   4.4281

          k = 0.5220 0.7420-0.4480     band energies (ev):

    -3.6073  -0.4657   3.4874   4.6307

          k = 0.6220 0.8420-0.5480     band energies (ev):

    -4.3486   0.8263   3.5610   4.9902

          k = 0.7220 0.9420-0.6480     band energies (ev):

    -5.0187   2.4083   3.8973   5.4094

          k = 0.8220 1.0420-0.7480     band energies (ev):

    -5.4747   3.7103   4.7772   5.6830

          k = 0.0220 0.0420 0.2520     band energies (ev):

    -5.6086   4.5443   5.1782   5.2755

          k = 0.1220 0.1420 0.1520     band energies (ev):

    -5.6427   4.1655   5.5998   5.7160

          k = 0.2220 0.2420 0.0520     band energies (ev):

    -5.4167   3.4598   4.6585   5.7281

          k = 0.3220 0.3420-0.0480     band energies (ev):

    -4.9424   2.2497   3.6983   5.4349

          k = 0.4220 0.4420-0.1480     band energies (ev):

    -4.2593   0.7146   3.3596   5.0004

          k = 0.5220 0.5420-0.2480     band energies (ev):

    -3.5282  -0.5256   3.3193   4.6199

          k = 0.6220 0.6420-0.3480     band energies (ev):

    -3.3939  -0.7228   3.4958   4.3793

          k = 0.7220 0.7420-0.4480     band energies (ev):

    -4.0589   0.3365   3.8469   4.3205

          k = 0.8220 0.8420-0.5480     band energies (ev):

    -4.7809   1.8740   4.3004   4.4771

          k = 0.9220 0.9420-0.6480     band energies (ev):

    -5.3162   3.5149   4.7173   4.8455

          k = 0.1220-0.0580 0.3520     band energies (ev):

    -5.2792   3.2983   4.5824   5.0065

          k = 0.2220 0.0420 0.2520     band energies (ev):

    -5.3995   3.4338   4.5761   5.7168

          k = 0.3220 0.1420 0.1520     band energies (ev):

    -5.2613   2.9013   4.9271   5.1292

          k = 0.4220 0.2420 0.0520     band energies (ev):

    -4.8707   2.2044   3.7290   5.0081

          k = 0.5220 0.3420-0.0480     band energies (ev):

    -4.2533   1.1292   2.8646   4.6209

          k = 0.6220 0.4420-0.1480     band energies (ev):

    -3.5021  -0.1213   2.6092   4.2028

          k = 0.7220 0.5420-0.2480     band energies (ev):

    -3.0577  -0.7523   2.6474   3.9596

          k = 0.8220 0.6420-0.3480     band energies (ev):

    -3.5509  -0.0504   2.8517   3.9894

          k = 0.9220 0.7420-0.4480     band energies (ev):

    -4.3011   1.2500   3.2144   4.2835

          k = 1.0220 0.8420-0.5480     band energies (ev):

    -4.9053   2.4989   3.9142   4.6194

          k = 0.2220-0.1580 0.4520     band energies (ev):

    -4.7114   1.6391   4.1643   4.6424

          k = 0.3220-0.0580 0.3520     band energies (ev):

    -4.9094   2.1547   3.6910   5.4040

          k = 0.4220 0.0420 0.2520     band energies (ev):

    -4.8543   2.1811   3.6509   5.0369

          k = 0.5220 0.1420 0.1520     band energies (ev):

    -4.5478   1.6530   3.8651   4.1628

          k = 0.6220 0.2420 0.0520     band energies (ev):

    -4.0069   0.9463   2.9787   3.8742

          k = 0.7220 0.3420-0.0480     band energies (ev):

    -3.2844   0.0407   2.3211   3.4262

          k = 0.8220 0.4420-0.1480     band energies (ev):

    -2.6347  -0.7414   2.0052   3.2263

          k = 0.9220 0.5420-0.2480     band energies (ev):

    -2.8736  -0.4591   1.9661   3.3972

          k = 1.0220 0.6420-0.3480     band energies (ev):

    -3.6178   0.4045   2.3717   3.8374

          k = 1.1220 0.7420-0.4480     band energies (ev):

    -4.2704   1.0799   3.3746   4.2746

          k = 0.3220-0.2580 0.5520     band energies (ev):

    -3.9733   0.1328   3.8310   4.4118

          k = 0.4220-0.1580 0.4520     band energies (ev):

    -4.2153   0.6155   3.3842   4.9709

          k = 0.5220-0.0580 0.3520     band energies (ev):

    -4.2235   1.0537   2.8540   4.6346

          k = 0.6220 0.0420 0.2520     band energies (ev):

    -3.9921   0.9290   2.9239   3.8826

          k = 0.7220 0.1420 0.1520     band energies (ev):

    -3.5292   0.3262   2.8371   3.6054

          k = 0.8220 0.2420 0.0520     band energies (ev):

    -2.8659  -0.4093   2.5085   3.0906

          k = 0.9220 0.3420-0.0480     band energies (ev):

    -2.1235  -1.1220   2.1274   2.6543

          k = 1.0220 0.4420-0.1480     band energies (ev):

    -2.1948  -1.0297   1.7520   2.9159

          k = 1.1220 0.5420-0.2480     band energies (ev):

    -2.8912  -0.5318   2.0871   3.4684

          k = 1.2220 0.6420-0.3480     band energies (ev):

    -3.5173  -0.2235   3.0269   4.0717

          k = 0.4220-0.3580 0.6520     band energies (ev):

    -3.3717  -0.8017   3.5714   4.4310

          k = 0.5220-0.2580 0.5520     band energies (ev):

    -3.4963  -0.5859   3.3582   4.6020

          k = 0.6220-0.1580 0.4520     band energies (ev):

    -3.4716  -0.1952   2.6370   4.2221

          k = 0.7220-0.0580 0.3520     band energies (ev):

    -3.2617  -0.0008   2.2955   3.4437

          k = 0.8220 0.0420 0.2520     band energies (ev):

    -2.8541  -0.4151   2.4973   3.0439

          k = 0.9220 0.1420 0.1520     band energies (ev):

    -2.2656  -1.1105   2.3427   3.3349

          k = 1.0220 0.2420 0.0520     band energies (ev):

    -1.8498  -1.4926   2.3691   2.8697

          k = 1.1220 0.3420-0.0480     band energies (ev):

    -2.3866  -0.8600   2.1423   2.7628

          k = 1.2220 0.4420-0.1480     band energies (ev):

    -2.8196  -0.6215   2.1229   3.3993

          k = 1.3220 0.5420-0.2480     band energies (ev):

    -3.1410  -0.7586   2.8035   4.1388

          k = 0.5220-0.4580 0.7520     band energies (ev):

    -3.6469  -0.3967   3.4553   4.6590

          k = 0.6220-0.3580 0.6520     band energies (ev):

    -3.4301  -0.6841   3.5419   4.3788

          k = 0.7220-0.2580 0.5520     band energies (ev):

    -3.0811  -0.7488   2.6980   3.9877

          k = 0.8220-0.1580 0.4520     band energies (ev):

    -2.6427  -0.7533   2.0143   3.2611

          k = 0.9220-0.0580 0.3520     band energies (ev):

    -2.1214  -1.1193   2.0741   2.6785

          k = 1.0220 0.0420 0.2520     band energies (ev):

    -1.8375  -1.4953   2.3831   2.7926

          k = 1.1220 0.1420 0.1520     band energies (ev):

    -2.5578  -0.7949   2.4030   3.3686

          k = 1.2220 0.2420 0.0520     band energies (ev):

    -3.1374  -0.1018   2.5853   3.2162

          k = 1.3220 0.3420-0.0480     band energies (ev):

    -3.5184   0.2836   2.4111   3.6723

          k = 1.4220 0.4420-0.1480     band energies (ev):

    -3.6857   0.0429   2.7623   4.4383

          k = 0.6220-0.5580 0.8520     band energies (ev):

    -4.3941   0.9285   3.5395   5.0329

          k = 0.7220-0.4580 0.7520     band energies (ev):

    -4.1173   0.4287   3.8898   4.3451

          k = 0.8220-0.3580 0.6520     band energies (ev):

    -3.6186   0.0262   2.9202   4.0236

          k = 0.9220-0.2580 0.5520     band energies (ev):

    -2.9444  -0.3930   2.0045   3.4433

          k = 1.0220-0.1580 0.4520     band energies (ev):

    -2.2521  -0.9758   1.7436   2.9557

          k = 1.1220-0.0580 0.3520     band energies (ev):

    -2.3771  -0.8682   2.0957   2.7836

          k = 1.2220 0.0420 0.2520     band energies (ev):

    -3.1248  -0.1103   2.5636   3.1825

          k = 1.3220 0.1420 0.1520     band energies (ev):

    -3.7774   0.6309   3.0219   3.7045

          k = 1.4220 0.2420 0.0520     band energies (ev):

    -4.2227   1.2289   3.1217   4.1094

          k = 1.5220 0.3420-0.0480     band energies (ev):

    -4.4308   1.3695   3.0271   4.8722

          k = 0.7220-0.6580 0.9520     band energies (ev):

    -5.0522   2.5062   3.9054   5.4533

          k = 0.8220-0.5580 0.8520     band energies (ev):

    -4.8306   1.9856   4.3154   4.5458

          k = 0.9220-0.4580 0.7520     band energies (ev):

    -4.3652   1.3540   3.2953   4.3187

          k = 1.0220-0.3580 0.6520     band energies (ev):

    -3.6920   0.4946   2.4352   3.8857

          k = 1.1220-0.2580 0.5520     band energies (ev):

    -2.9558  -0.4753   2.1291   3.5125

          k = 1.2220-0.1580 0.4520     band energies (ev):

    -2.8153  -0.6516   2.1382   3.4317

          k = 1.3220-0.0580 0.3520     band energies (ev):

    -3.4935   0.2335   2.3899   3.6903

          k = 1.4220 0.0420 0.2520     band energies (ev):

    -4.2073   1.2097   3.0598   4.1263

          k = 1.5220 0.1420 0.1520     band energies (ev):

    -4.7323   1.9285   4.1385   4.3213

          k = 1.6220 0.2420 0.0520     band energies (ev):

    -5.0189   2.4780   3.9245   5.2445

          k = 0.8220-0.7580 1.0520     band energies (ev):

    -5.4920   3.7373   4.8583   5.7060

          k = 0.9220-0.6580 0.9520     band energies (ev):

    -5.3506   3.6256   4.7369   4.9126

          k = 1.0220-0.5580 0.8520     band energies (ev):

    -4.9559   2.6171   3.9972   4.6441

          k = 1.1220-0.4580 0.7520     band energies (ev):

    -4.3337   1.1815   3.4561   4.3031

          k = 1.2220-0.3580 0.6520     band energies (ev):

    -3.5808  -0.1529   3.0951   4.0981

          k = 1.3220-0.2580 0.5520     band energies (ev):

    -3.1503  -0.7720   2.8538   4.1594

          k = 1.4220-0.1580 0.4520     band energies (ev):

    -3.6511  -0.0387   2.7910   4.4506

          k = 1.5220-0.0580 0.3520     band energies (ev):

    -4.4000   1.2886   3.0182   4.8807

          k = 1.6220 0.0420 0.2520     band energies (ev):

    -5.0023   2.4542   3.8440   5.2701

          k = 1.7220 0.1420 0.1520     band energies (ev):

    -5.3742   3.1794   5.1141   5.3562

          k =-0.1780 0.2420 0.2520     band energies (ev):

    -5.2349   2.5733   5.0886   5.4624

          k =-0.0780 0.3420 0.1520     band energies (ev):

    -5.2632   3.1158   4.5914   5.1390

          k = 0.0220 0.4420 0.0520     band energies (ev):

    -5.0344   2.9709   4.3062   4.3900

          k = 0.1220 0.5420-0.0480     band energies (ev):

    -4.5590   1.9225   3.7341   4.0728

          k = 0.2220 0.6420-0.1480     band energies (ev):

    -3.8755   0.6239   3.0791   3.8596

          k = 0.3220 0.7420-0.2480     band energies (ev):

    -3.1432  -0.4835   2.5399   3.8839

          k = 0.4220 0.8420-0.3480     band energies (ev):

    -3.0363  -0.6182   2.2340   4.1274

          k = 0.5220 0.9420-0.4480     band energies (ev):

    -3.7162   0.3472   2.2694   4.5406

          k = 0.6220 1.0420-0.5480     band energies (ev):

    -4.4284   1.3457   2.9524   5.0181

          k = 0.7220 1.1420-0.6480     band energies (ev):

    -4.9516   1.9810   4.3335   5.3158

          k =-0.0780 0.1420 0.3520     band energies (ev):

    -5.2457   3.1051   4.5820   5.0475

          k = 0.0220 0.2420 0.2520     band energies (ev):

    -5.3652   3.3632   4.4291   5.7186

          k = 0.1220 0.3420 0.1520     band energies (ev):

    -5.2267   2.8882   4.7759   5.0481

          k = 0.2220 0.4420 0.0520     band energies (ev):

    -4.8356   2.1842   3.7352   4.8423

          k = 0.3220 0.5420-0.0480     band energies (ev):

    -4.2182   1.1110   2.8823   4.4678

          k = 0.4220 0.6420-0.1480     band energies (ev):

    -3.4666  -0.1240   2.5973   4.0696

          k = 0.5220 0.7420-0.2480     band energies (ev):

    -3.0238  -0.7461   2.5821   3.8758

          k = 0.6220 0.8420-0.3480     band energies (ev):

    -3.5204  -0.0447   2.7228   3.9782

          k = 0.7220 0.9420-0.4480     band energies (ev):

    -4.2701   1.2233   3.0687   4.3256

          k = 0.8220 1.0420-0.5480     band energies (ev):

    -4.8728   2.3671   3.8629   4.6661

          k = 0.0220 0.0420 0.4520     band energies (ev):

    -4.9999   2.9067   4.2827   4.3312

          k = 0.1220 0.1420 0.3520     band energies (ev):

    -5.2093   2.8811   4.7590   4.9558

          k = 0.2220 0.2420 0.2520     band energies (ev):

    -5.1619   2.3061   5.2215   5.3386

          k = 0.3220 0.3420 0.1520     band energies (ev):

    -4.8606   1.7306   4.2455   5.3446

          k = 0.4220 0.4420 0.0520     band energies (ev):

    -4.3224   1.1463   2.8414   5.0112

          k = 0.5220 0.5420-0.0480     band energies (ev):

    -3.6027   0.2317   2.1259   4.5256

          k = 0.6220 0.6420-0.1480     band energies (ev):

    -2.9476  -0.6606   2.1095   4.1101

          k = 0.7220 0.7420-0.2480     band energies (ev):

    -3.1298  -0.4309   2.4695   3.8588

          k = 0.8220 0.8420-0.3480     band energies (ev):

    -3.8728   0.6820   3.0912   3.8086

          k = 0.9220 0.9420-0.4480     band energies (ev):

    -4.5428   1.9397   3.8208   3.9706

          k = 0.1220-0.0580 0.5520     band energies (ev):

    -4.5088   1.8268   3.7020   4.0267

          k = 0.2220 0.0420 0.4520     band energies (ev):

    -4.8017   2.1488   3.6646   4.7909

          k = 0.3220 0.1420 0.3520     band energies (ev):

    -4.8436   1.7318   4.1408   5.3341

          k = 0.4220 0.2420 0.2520     band energies (ev):

    -4.6342   1.1730   4.6451   4.7208

          k = 0.5220 0.3420 0.1520     band energies (ev):

    -4.1852   0.6966   3.3595   4.6097

          k = 0.6220 0.4420 0.0520     band energies (ev):

    -3.5310   0.1953   2.1834   4.1459

          k = 0.7220 0.5420-0.0480     band energies (ev):

    -2.7954  -0.5374   1.7447   3.6696

          k = 0.8220 0.6420-0.1480     band energies (ev):

    -2.5910  -0.7755   1.9628   3.3748

          k = 0.9220 0.7420-0.2480     band energies (ev):

    -3.2609   0.0193   2.5516   3.3541

          k = 1.0220 0.8420-0.3480     band energies (ev):

    -3.9787   1.0003   3.2380   3.6602

          k = 0.2220-0.1580 0.6520     band energies (ev):

    -3.8142   0.5325   3.0322   3.8438

          k = 0.3220-0.0580 0.5520     band energies (ev):

    -4.1708   1.0288   2.8773   4.4068

          k = 0.4220 0.0420 0.4520     band energies (ev):

    -4.2903   1.1241   2.7690   4.9809

          k = 0.5220 0.1420 0.3520     band energies (ev):

    -4.1692   0.6991   3.2645   4.6288

          k = 0.6220 0.2420 0.2520     band energies (ev):

    -3.8152   0.2273   3.2979   4.0746

          k = 0.7220 0.3420 0.1520     band energies (ev):

    -3.2540  -0.1921   2.4802   3.6347

          k = 0.8220 0.4420 0.0520     band energies (ev):

    -2.5468  -0.6978   1.9135   2.9625

          k = 0.9220 0.5420-0.0480     band energies (ev):

    -1.9856  -1.2026   1.8963   2.5516

          k = 1.0220 0.6420-0.1480     band energies (ev):

    -2.5140  -0.7188   2.1383   2.7769

          k = 1.1220 0.7420-0.2480     band energies (ev):

    -3.2421  -0.0523   2.5069   3.4820

          k = 0.3220-0.2580 0.7520     band energies (ev):

    -3.0944  -0.5369   2.4914   3.8950

          k = 0.4220-0.1580 0.6520     band energies (ev):

    -3.4185  -0.1974   2.6123   4.0274

          k = 0.5220-0.0580 0.5520     band energies (ev):

    -3.5626   0.1656   2.1296   4.4959

          k = 0.6220 0.0420 0.4520     band energies (ev):

    -3.5026   0.1771   2.1241   4.1542

          k = 0.7220 0.1420 0.3520     band energies (ev):

    -3.2395  -0.1924   2.4420   3.6079

          k = 0.8220 0.2420 0.2520     band energies (ev):

    -2.7989  -0.6169   2.1072   3.6911

          k = 0.9220 0.3420 0.1520     band energies (ev):

    -2.2478  -1.0396   1.8349   3.1762

          k = 1.0220 0.4420 0.0520     band energies (ev):

    -1.8200  -1.3586   1.9773   2.4131

          k = 1.1220 0.5420-0.0480     band energies (ev):

    -2.1449  -1.0679   1.8141   2.7675

          k = 1.2220 0.6420-0.1480     band energies (ev):

    -2.6425  -0.7838   1.9528   3.5854

          k = 0.4220-0.3580 0.8520     band energies (ev):

    -3.0589  -0.5753   2.1975   4.1575

          k = 0.5220-0.2580 0.7520     band energies (ev):

    -3.0310  -0.7384   2.5898   3.8718

          k = 0.6220-0.1580 0.6520     band energies (ev):

    -2.9362  -0.6906   2.1486   4.0912

          k = 0.7220-0.0580 0.5520     band energies (ev):

    -2.7735  -0.5742   1.7489   3.6878

          k = 0.8220 0.0420 0.4520     band energies (ev):

    -2.5245  -0.7131   1.8863   2.9564

          k = 0.9220 0.1420 0.3520     band energies (ev):

    -2.2322  -1.0456   1.8457   3.1032

          k = 1.0220 0.2420 0.2520     band energies (ev):

    -2.1567  -1.1620   1.7092   3.5800

          k = 1.1220 0.3420 0.1520     band energies (ev):

    -2.4492  -0.8639   1.9261   3.2301

          k = 1.2220 0.4420 0.0520     band energies (ev):

    -2.7724  -0.5005   1.9344   3.2000

          k = 1.3220 0.5420-0.0480     band energies (ev):

    -2.9826  -0.3782   1.7875   3.9196

          k = 0.5220-0.4580 0.9520     band energies (ev):

    -3.7586   0.4176   2.2664   4.5822

          k = 0.6220-0.3580 0.8520     band energies (ev):

    -3.5727   0.0340   2.7186   4.0163

          k = 0.7220-0.2580 0.7520     band energies (ev):

    -3.1863  -0.3685   2.5238   3.8552

          k = 0.8220-0.1580 0.6520     band energies (ev):

    -2.6420  -0.7335   2.0031   3.4060

          k = 0.9220-0.0580 0.5520     band energies (ev):

    -2.0163  -1.1780   1.8975   2.5817

          k = 1.0220 0.0420 0.4520     band energies (ev):

    -1.7872  -1.3850   2.0026   2.3574

          k = 1.1220 0.1420 0.3520     band energies (ev):

    -2.4347  -0.8681   1.9310   3.1627

          k = 1.2220 0.2420 0.2520     band energies (ev):

    -3.0289  -0.4318   2.3187   3.7531

          k = 1.3220 0.3420 0.1520     band energies (ev):

    -3.4755  -0.0028   2.6712   3.8134

          k = 1.4220 0.4420 0.0520     band energies (ev):

    -3.7258   0.3961   2.2988   4.4025

          k = 0.6220-0.5580 1.0520     band energies (ev):

    -4.4611   1.3696   3.0257   5.0587

          k = 0.7220-0.4580 0.9520     band energies (ev):

    -4.3184   1.3086   3.0777   4.3862

          k = 0.8220-0.3580 0.8520     band energies (ev):

    -3.9353   0.7759   3.1496   3.8237

          k = 0.9220-0.2580 0.7520     band energies (ev):

    -3.3342   0.1047   2.6113   3.3945

          k = 1.0220-0.1580 0.6520     band energies (ev):

    -2.5891  -0.6475   2.1720   2.8236

          k = 1.1220-0.0580 0.5520     band energies (ev):

    -2.1581  -1.0622   1.8171   2.7953

          k = 1.2220 0.0420 0.4520     band energies (ev):

    -2.7488  -0.5166   1.8979   3.2013

          k = 1.3220 0.1420 0.3520     band energies (ev):

    -3.4606  -0.0023   2.6173   3.8011

          k = 1.4220 0.2420 0.2520     band energies (ev):

    -4.0175   0.4211   3.6104   4.1915

          k = 1.5220 0.3420 0.1520     band energies (ev):

    -4.3584   0.9089   3.5535   4.8398

          k = 0.7220-0.6580 1.1520     band energies (ev):

    -4.9687   1.9809   4.4360   5.3351

          k = 0.8220-0.5580 1.0520     band energies (ev):

    -4.9071   2.4080   3.9311   4.7134

          k = 0.9220-0.4580 0.9520     band energies (ev):

    -4.5933   2.0382   3.8632   4.0085

          k = 1.0220-0.3580 0.8520     band energies (ev):

    -4.0433   1.0998   3.3052   3.6950

          k = 1.1220-0.2580 0.7520     band energies (ev):

    -3.3135   0.0301   2.5674   3.5152

          k = 1.2220-0.1580 0.6520     band energies (ev):

    -2.6806  -0.7568   1.9940   3.6088

          k = 1.3220-0.0580 0.5520     band energies (ev):

    -2.9551  -0.4232   1.7919   3.9311

          k = 1.4220 0.0420 0.4520     band energies (ev):

    -3.6964   0.3773   2.2353   4.4068

          k = 1.5220 0.1420 0.3520     band energies (ev):

    -4.3421   0.9115   3.4530   4.8587

          k = 1.6220 0.2420 0.2520     band energies (ev):

    -4.7769   1.4063   4.8121   4.9535

          k =-0.2780 0.3420 0.3520     band energies (ev):

    -4.5718   0.8500   4.8075   5.1178

          k =-0.1780 0.4420 0.2520     band energies (ev):

    -4.6666   1.4229   4.2156   4.7644

          k =-0.0780 0.5420 0.1520     band energies (ev):

    -4.5125   1.7528   3.6659   4.1118

          k = 0.0220 0.6420 0.0520     band energies (ev):

    -4.1136   1.2426   3.6002   3.6692

          k = 0.1220 0.7420-0.0480     band energies (ev):

    -3.4923   0.3217   3.1050   3.4228

          k = 0.2220 0.8420-0.1480     band energies (ev):

    -2.7369  -0.5888   2.2479   3.4223

          k = 0.3220 0.9420-0.2480     band energies (ev):

    -2.3772  -0.9529   1.6656   3.6460

          k = 0.4220 1.0420-0.3480     band energies (ev):

    -2.9746  -0.3938   1.7365   4.0575

          k = 0.5220 1.1420-0.4480     band energies (ev):

    -3.6831   0.0302   2.6965   4.5668

          k = 0.6220 1.2420-0.5480     band energies (ev):

    -4.2361   0.3778   4.1100   4.9430

          k =-0.1780 0.2420 0.4520     band energies (ev):

    -4.6492   1.4232   4.1991   4.6774

          k =-0.0780 0.3420 0.3520     band energies (ev):

    -4.8440   1.9558   3.6898   5.3691

          k = 0.0220 0.4420 0.2520     band energies (ev):

    -4.7869   2.0996   3.5227   4.9306

          k = 0.1220 0.5420 0.1520     band energies (ev):

    -4.4791   1.6055   3.7292   4.0920

          k = 0.2220 0.6420 0.0520     band energies (ev):

    -3.9374   0.8780   3.0011   3.7563

          k = 0.3220 0.7420-0.0480     band energies (ev):

    -3.2143  -0.0225   2.3587   3.3156

          k = 0.4220 0.8420-0.1480     band energies (ev):

    -2.5667  -0.7791   1.9656   3.1751

          k = 0.5220 0.9420-0.2480     band energies (ev):

    -2.8225  -0.4854   1.8763   3.4020

          k = 0.6220 1.0420-0.3480     band energies (ev):

    -3.5655   0.3082   2.3209   3.8707

          k = 0.7220 1.1420-0.4480     band energies (ev):

    -4.2125   0.8984   3.3918   4.3150

          k =-0.0780 0.1420 0.5520     band energies (ev):

    -4.4781   1.7167   3.6545   4.0512

          k = 0.0220 0.2420 0.4520     band energies (ev):

    -4.7694   2.0878   3.5297   4.8493

          k = 0.1220 0.3420 0.3520     band energies (ev):

    -4.8100   1.7319   3.9320   5.3368

          k = 0.2220 0.4420 0.2520     band energies (ev):

    -4.5997   1.1799   4.4485   4.6728

          k = 0.3220 0.5420 0.1520     band energies (ev):

    -4.1500   0.6954   3.3408   4.4621

          k = 0.4220 0.6420 0.0520     band energies (ev):

    -3.4955   0.1785   2.2052   3.9978

          k = 0.5220 0.7420-0.0480     band energies (ev):

    -2.7595  -0.5546   1.7700   3.5210

          k = 0.6220 0.8420-0.1480     band energies (ev):

    -2.5611  -0.7821   1.9617   3.2489

          k = 0.7220 0.9420-0.2480     band energies (ev):

    -3.2345   0.0030   2.4996   3.2945

          k = 0.8220 1.0420-0.3480     band energies (ev):

    -3.9502   0.9393   3.1498   3.6794

          k = 0.0220 0.0420 0.6520     band energies (ev):

    -4.0629   1.1622   3.5893   3.6403

          k = 0.1220 0.1420 0.5520     band energies (ev):

    -4.4447   1.5778   3.6900   4.0430

          k = 0.2220 0.2420 0.4520     band energies (ev):

    -4.5823   1.1822   4.4201   4.5874

          k = 0.3220 0.3420 0.3520     band energies (ev):

    -4.4733   0.6154   4.9453   5.0325

          k = 0.4220 0.4420 0.2520     band energies (ev):

    -4.1277   0.1703   4.0599   4.9693

          k = 0.5220 0.5420 0.1520     band energies (ev):

    -3.5713  -0.1380   2.6490   4.5608

          k = 0.6220 0.6420 0.0520     band energies (ev):

    -2.8690  -0.5132   1.7024   4.0546

          k = 0.7220 0.7420-0.0480     band energies (ev):

    -2.2931  -1.0326   1.6722   3.6532

          k = 0.8220 0.8420-0.1480     band energies (ev):

    -2.7028  -0.6292   2.3158   3.4359

          k = 0.9220 0.9420-0.2480     band energies (ev):

    -3.4562   0.2677   3.1886   3.4308

          k = 0.1220-0.0580 0.7520     band energies (ev):

    -3.4280   0.2353   3.0545   3.4181

          k = 0.2220 0.0420 0.6520     band energies (ev):

    -3.8878   0.8234   2.9676   3.7034

          k = 0.3220 0.1420 0.5520     band energies (ev):

    -4.1165   0.6950   3.2432   4.4085

          k = 0.4220 0.2420 0.4520     band energies (ev):

    -4.1109   0.1779   3.9540   4.9505

          k = 0.5220 0.3420 0.3520     band energies (ev):

    -3.8815  -0.2630   4.3388   4.5872

          k = 0.6220 0.4420 0.2520     band energies (ev):

    -3.4562  -0.5194   3.2266   4.3247

          k = 0.7220 0.5420 0.1520     band energies (ev):

    -2.8826  -0.6711   2.1241   3.7689

          k = 0.8220 0.6420 0.0520     band energies (ev):

    -2.2322  -1.0517   1.7317   3.2650

          k = 0.9220 0.7420-0.0480     band energies (ev):

    -2.0200  -1.3029   2.2173   2.9654

          k = 1.0220 0.8420-0.1480     band energies (ev):

    -2.7637  -0.5759   2.8628   3.0946

          k = 0.2220-0.1580 0.8520     band energies (ev):

    -2.6724  -0.6591   2.1948   3.4397

          k = 0.3220-0.0580 0.7520     band energies (ev):

    -3.1564  -0.0924   2.3432   3.2836

          k = 0.4220 0.0420 0.6520     band energies (ev):

    -3.4494   0.1501   2.1602   3.9317

          k = 0.5220 0.1420 0.5520     band energies (ev):

    -3.5394  -0.1318   2.5541   4.5261

          k = 0.6220 0.2420 0.4520     band energies (ev):

    -3.4399  -0.5125   3.1477   4.3192

          k = 0.7220 0.3420 0.3520     band energies (ev):

    -3.1880  -0.7179   2.8849   4.1885

          k = 0.8220 0.4420 0.2520     band energies (ev):

    -2.8348  -0.7384   2.1797   3.6961

          k = 0.9220 0.5420 0.1520     band energies (ev):

    -2.4134  -0.8361   1.8907   2.8962

          k = 1.0220 0.6420 0.0520     band energies (ev):

    -1.9386  -1.2897   2.1754   2.4688

          k = 1.1220 0.7420-0.0480     band energies (ev):

    -2.0558  -1.2667   2.0469   3.1733

          k = 0.3220-0.2580 0.9520     band energies (ev):

    -2.3854  -0.9414   1.6396   3.6799

          k = 0.4220-0.1580 0.8520     band energies (ev):

    -2.5419  -0.8059   1.9427   3.1930

          k = 0.5220-0.0580 0.7520     band energies (ev):

    -2.7198  -0.5988   1.7842   3.4670

          k = 0.6220 0.0420 0.6520     band energies (ev):

    -2.8294  -0.5357   1.6686   4.0225

          k = 0.7220 0.1420 0.5520     band energies (ev):

    -2.8518  -0.6742   2.0595   3.7653

          k = 0.8220 0.2420 0.4520     band energies (ev):

    -2.8178  -0.7393   2.1695   3.6378

          k = 0.9220 0.3420 0.3520     band energies (ev):

    -2.7500  -0.6606   1.7305   3.9779

          k = 1.0220 0.4420 0.2520     band energies (ev):

    -2.6337  -0.6617   1.6727   3.5309

          k = 1.1220 0.5420 0.1520     band energies (ev):

    -2.4765  -0.8257   1.9158   3.0304

          k = 1.2220 0.6420 0.0520     band energies (ev):

    -2.3600  -0.9491   1.6703   3.4973

          k = 0.4220-0.3580 1.0520     band energies (ev):

    -3.0157  -0.3718   1.7745   4.1019

          k = 0.5220-0.2580 0.9520     band energies (ev):

    -2.8678  -0.4345   1.8667   3.4550

          k = 0.6220-0.1580 0.8520     band energies (ev):

    -2.5981  -0.7423   1.9950   3.2240

          k = 0.7220-0.0580 0.7520     band energies (ev):

    -2.2972  -1.0319   1.7009   3.6322

          k = 0.8220 0.0420 0.6520     band energies (ev):

    -2.1960  -1.0873   1.7266   3.2783

          k = 0.9220 0.1420 0.5520     band energies (ev):

    -2.3787  -0.8636   1.9017   2.8510

          k = 1.0220 0.2420 0.4520     band energies (ev):

    -2.6157  -0.6711   1.6871   3.4554

          k = 1.1220 0.3420 0.3520     band energies (ev):

    -2.8055  -0.7000   1.9091   4.0046

          k = 1.2220 0.4420 0.2520     band energies (ev):

    -2.9460  -0.7353   2.4069   3.7929

          k = 1.3220 0.5420 0.1520     band energies (ev):

    -3.0300  -0.5855   2.2170   3.9960

          k = 0.5220-0.4580 1.1520     band energies (ev):

    -3.7153   0.0242   2.7942   4.6115

          k = 0.6220-0.3580 1.0520     band energies (ev):

    -3.6126   0.3406   2.3655   3.9369

          k = 0.7220-0.2580 0.9520     band energies (ev):

    -3.2944   0.0774   2.5246   3.3173

          k = 0.8220-0.1580 0.8520     band energies (ev):

    -2.7715  -0.5542   2.3703   3.4297

          k = 0.9220-0.0580 0.7520     band energies (ev):

    -2.0876  -1.2425   2.2535   2.9967

          k = 1.0220 0.0420 0.6520     band energies (ev):

    -1.8864  -1.3502   2.2053   2.4682

          k = 1.1220 0.1420 0.5520     band energies (ev):

    -2.4427  -0.8480   1.9082   2.9987

          k = 1.2220 0.2420 0.4520     band energies (ev):

    -2.9293  -0.7338   2.3837   3.7448

          k = 1.3220 0.3420 0.3520     band energies (ev):

    -3.3339  -0.6629   3.2084   4.2630

          k = 1.4220 0.4420 0.2520     band energies (ev):

    -3.6121  -0.4030   3.4316   4.5092

          k = 0.6220-0.5580 1.2520     band energies (ev):

    -4.2531   0.3708   4.2153   4.9688

          k = 0.7220-0.4580 1.1520     band energies (ev):

    -4.2463   0.9027   3.4866   4.3631

          k = 0.8220-0.3580 1.0520     band energies (ev):

    -4.0003   1.0015   3.1776   3.7264

          k = 0.9220-0.2580 0.9520     band energies (ev):

    -3.5209   0.3561   3.2374   3.4414

          k = 1.0220-0.1580 0.8520     band energies (ev):

    -2.8388  -0.4936   2.9098   3.1312

          k = 1.1220-0.0580 0.7520     band energies (ev):

    -2.1116  -1.2172   2.0826   3.1973

          k = 1.2220 0.0420 0.6520     band energies (ev):

    -2.3246  -0.9800   1.6579   3.5055

          k = 1.3220 0.1420 0.5520     band energies (ev):

    -2.9995  -0.5850   2.1421   3.9913

          k = 1.4220 0.2420 0.4520     band energies (ev):

    -3.5958  -0.3954   3.3409   4.5092

          k = 1.5220 0.3420 0.3520     band energies (ev):

    -4.0287  -0.1007   4.6020   4.6940

          k =-0.3780 0.4420 0.4520     band energies (ev):

    -3.8268  -0.5058   4.6792   4.8797

          k =-0.2780 0.5420 0.3520     band energies (ev):

    -3.9185  -0.0540   3.9505   4.5184

          k =-0.1780 0.6420 0.2520     band energies (ev):

    -3.7983   0.3992   3.0725   3.9288

          k =-0.0780 0.7420 0.1520     band energies (ev):

    -3.4540   0.2671   2.9271   3.4610

          k = 0.0220 0.8420 0.0520     band energies (ev):

    -2.8917  -0.4726   3.1842   3.2583

          k = 0.1220 0.9420-0.0480     band energies (ev):

    -2.1556  -1.2789   2.8133   3.1461

          k = 0.2220 1.0420-0.1480     band energies (ev):

    -2.0436  -1.3013   2.0517   3.3263

          k = 0.3220 1.1420-0.2480     band energies (ev):

    -2.6376  -0.7935   1.9241   3.7092

          k = 0.4220 1.2420-0.3480     band energies (ev):

    -3.1447  -0.7623   2.7811   4.2268

          k = 0.5220 1.3420-0.4480     band energies (ev):

    -3.5536  -0.7466   4.0616   4.6873

          k =-0.2780 0.3420 0.5520     band energies (ev):

    -3.9010  -0.0484   3.9006   4.4611

          k =-0.1780 0.4420 0.4520     band energies (ev):

    -4.1302   0.4198   3.4392   4.9401

          k =-0.0780 0.5420 0.3520     band energies (ev):

    -4.1301   0.8817   2.8593   4.5168

          k = 0.0220 0.6420 0.2520     band energies (ev):

    -3.8937   0.8213   2.8535   3.7697

          k = 0.1220 0.7420 0.1520     band energies (ev):

    -3.4278   0.2157   2.8119   3.5387

          k = 0.2220 0.8420 0.0520     band energies (ev):

    -2.7626  -0.5360   2.5482   3.0811

          k = 0.3220 0.9420-0.0480     band energies (ev):

    -2.0207  -1.2415   2.1707   2.6645

          k = 0.4220 1.0420-0.1480     band energies (ev):

    -2.1926  -1.0452   1.7580   2.9647

          k = 0.5220 1.1420-0.2480     band energies (ev):

    -2.8689  -0.6080   2.1202   3.5270

          k = 0.6220 1.2420-0.3480     band energies (ev):

    -3.4657  -0.3675   3.0907   4.1303

          k =-0.1780 0.2420 0.6520     band energies (ev):

    -3.7635   0.3869   3.0243   3.8906

          k =-0.0780 0.3420 0.5520     band energies (ev):

    -4.1125   0.8751   2.8646   4.4414

          k = 0.0220 0.4420 0.4520     band energies (ev):

    -4.2270   1.0652   2.6431   4.9451

          k = 0.1220 0.5420 0.3520     band energies (ev):

    -4.1026   0.6986   3.0705   4.5188

          k = 0.2220 0.6420 0.2520     band energies (ev):

    -3.7465   0.2227   3.1356   3.9957

          k = 0.3220 0.7420 0.1520     band energies (ev):

    -3.1840  -0.2251   2.4262   3.5701

          k = 0.4220 0.8420 0.0520     band energies (ev):

    -2.4758  -0.7577   1.9536   2.8574

          k = 0.5220 0.9420-0.0480     band energies (ev):

    -1.9235  -1.2524   1.9337   2.4528

          k = 0.6220 1.0420-0.1480     band energies (ev):

    -2.4862  -0.7464   2.0639   2.8017

          k = 0.7220 1.1420-0.2480     band energies (ev):

    -3.2024  -0.1397   2.4532   3.5318

          k =-0.0780 0.1420 0.7520     band energies (ev):

    -3.4030   0.2016   2.9322   3.4442

          k = 0.0220 0.2420 0.6520     band energies (ev):

    -3.8589   0.7850   2.8731   3.7087

          k = 0.1220 0.3420 0.5520     band energies (ev):

    -4.0850   0.6957   3.0679   4.4449

          k = 0.2220 0.4420 0.4520     band energies (ev):

    -4.0775   0.1929   3.7424   4.9346

          k = 0.3220 0.5420 0.3520     band energies (ev):

    -3.8471  -0.2481   4.1433   4.5272

          k = 0.4220 0.6420 0.2520     band energies (ev):

    -3.4210  -0.5109   3.1536   4.2259

          k = 0.5220 0.7420 0.1520     band energies (ev):

    -2.8476  -0.6759   2.1154   3.6422

          k = 0.6220 0.8420 0.0520     band energies (ev):

    -2.1975  -1.0674   1.7577   3.1153

          k = 0.7220 0.9420-0.0480     band energies (ev):

    -1.9963  -1.3078   2.2430   2.8148

          k = 0.8220 1.0420-0.1480     band energies (ev):

    -2.7437  -0.5852   2.7252   3.1152

          k = 0.0220 0.0420 0.8520     band energies (ev):

    -2.8260  -0.5553   3.1904   3.2505

          k = 0.1220 0.1420 0.7520     band energies (ev):

    -3.3769   0.1563   2.8075   3.5154

          k = 0.2220 0.2420 0.6520     band energies (ev):

    -3.7119   0.2170   3.0678   3.9592

          k = 0.3220 0.3420 0.5520     band energies (ev):

    -3.8297  -0.2413   4.0687   4.4837

          k = 0.4220 0.4420 0.4520     band energies (ev):

    -3.7469  -0.6531   4.8090   4.8514

          k = 0.5220 0.5420 0.3520     band energies (ev):

    -3.5009  -0.8301   4.0667   4.6995

          k = 0.6220 0.6420 0.2520     band energies (ev):

    -3.1349  -0.7702   2.7872   4.2267

          k = 0.7220 0.7420 0.1520     band energies (ev):

    -2.6706  -0.7542   1.9718   3.7260

          k = 0.8220 0.8420 0.0520     band energies (ev):

    -2.0960  -1.2692   2.1658   3.3628

          k = 0.9220 0.9420-0.0480     band energies (ev):

    -2.0972  -1.3633   2.9192   3.1979

          k = 0.1220-0.0580 0.9520     band energies (ev):

    -2.0823  -1.3545   2.7688   3.1674

          k = 0.2220 0.0420 0.8520     band energies (ev):

    -2.6990  -0.6061   2.5671   3.0257

          k = 0.3220 0.1420 0.7520     band energies (ev):

    -3.1345  -0.2472   2.3769   3.5057

          k = 0.4220 0.2420 0.6520     band energies (ev):

    -3.3871  -0.5011   3.0490   4.1672

          k = 0.5220 0.3420 0.5520     band energies (ev):

    -3.4836  -0.8213   3.9642   4.6721

          k = 0.6220 0.4420 0.4520     band energies (ev):

    -3.4626  -0.8955   4.1275   4.6684

          k = 0.7220 0.5420 0.3520     band energies (ev):

    -3.3394  -0.6874   3.2260   4.2814

          k = 0.8220 0.6420 0.2520     band energies (ev):

    -3.0896  -0.4097   2.3912   3.6246

          k = 0.9220 0.7420 0.1520     band energies (ev):

    -2.6789  -0.6140   2.3391   3.0989

          k = 1.0220 0.8420 0.0520     band energies (ev):

    -2.0951  -1.3203   2.7931   2.9817

          k = 0.2220-0.1580 1.0520     band energies (ev):

    -2.1033  -1.2391   2.0255   3.3624

          k = 0.3220-0.0580 0.9520     band energies (ev):

    -1.9703  -1.2935   2.1296   2.7018

          k = 0.4220 0.0420 0.8520     band energies (ev):

    -2.4178  -0.8048   1.9548   2.7932

          k = 0.5220 0.1420 0.7520     band energies (ev):

    -2.7993  -0.6836   2.0535   3.5712

          k = 0.6220 0.2420 0.6520     band energies (ev):

    -3.1009  -0.7627   2.6929   4.1880

          k = 0.7220 0.3420 0.5520     band energies (ev):

    -3.3218  -0.6824   3.1803   4.2402

          k = 0.8220 0.4420 0.4520     band energies (ev):

    -3.4239  -0.3783   2.6897   4.4855

          k = 0.9220 0.5420 0.3520     band energies (ev):

    -3.3621  -0.0400   2.1545   4.0196

          k = 1.0220 0.6420 0.2520     band energies (ev):

    -3.1107  -0.1231   2.2065   3.2742

          k = 1.1220 0.7420 0.1520     band energies (ev):

    -2.6734  -0.6386   2.2129   3.2793

          k = 0.3220-0.2580 1.1520     band energies (ev):

    -2.6869  -0.7720   1.9678   3.7556

          k = 0.4220-0.1580 1.0520     band energies (ev):

    -2.2466  -1.0031   1.7524   3.0296

          k = 0.5220-0.0580 0.9520     band energies (ev):

    -1.9309  -1.2448   1.9400   2.4467

          k = 0.6220 0.0420 0.8520     band energies (ev):

    -2.1432  -1.1119   1.7675   3.0526

          k = 0.7220 0.1420 0.7520     band energies (ev):

    -2.6207  -0.7827   1.9367   3.6920

          k = 0.8220 0.2420 0.6520     band energies (ev):

    -3.0547  -0.4226   2.3532   3.5992

          k = 0.9220 0.3420 0.5520     band energies (ev):

    -3.3444  -0.0467   2.1624   3.9469

          k = 1.0220 0.4420 0.4520     band energies (ev):

    -3.4477   0.1007   1.9525   4.4235

          k = 1.1220 0.5420 0.3520     band energies (ev):

    -3.3550  -0.1751   2.3451   4.0516

          k = 1.2220 0.6420 0.2520     band energies (ev):

    -3.0846  -0.5205   2.4703   3.7827

          k = 0.4220-0.3580 1.2520     band energies (ev):

    -3.1786  -0.7718   2.8806   4.2746

          k = 0.5220-0.2580 1.1520     band energies (ev):

    -2.9173  -0.6001   2.1831   3.5995

          k = 0.6220-0.1580 1.0520     band energies (ev):

    -2.5457  -0.6948   2.0602   2.8650

          k = 0.7220-0.0580 0.9520     band energies (ev):

    -2.0546  -1.2477   2.2889   2.7749

          k = 0.8220 0.0420 0.8520     band energies (ev):

    -2.0341  -1.3369   2.1953   3.3403

          k = 0.9220 0.1420 0.7520     band energies (ev):

    -2.6272  -0.6746   2.3524   3.0995

          k = 1.0220 0.2420 0.6520     band energies (ev):

    -3.0755  -0.1561   2.2317   3.2161

          k = 1.1220 0.3420 0.5520     band energies (ev):

    -3.3372  -0.1785   2.3453   3.9826

          k = 1.2220 0.4420 0.4520     band energies (ev):

    -3.4176  -0.5389   2.9974   4.5185

          k = 1.3220 0.5420 0.3520     band energies (ev):

    -3.3505  -0.7851   3.4638   4.3779

          k = 0.5220-0.4580 1.3520     band energies (ev):

    -3.5708  -0.7554   4.1665   4.7187

          k = 0.6220-0.3580 1.2520     band energies (ev):

    -3.4997  -0.3756   3.1930   4.1849

          k = 0.7220-0.2580 1.1520     band energies (ev):

    -3.2524  -0.1101   2.4940   3.5896

          k = 0.8220-0.1580 1.0520     band energies (ev):

    -2.8080  -0.5107   2.7039   3.1646

          k = 0.9220-0.0580 0.9520     band energies (ev):

    -2.1723  -1.2857   2.9571   3.1899

          k = 1.0220 0.0420 0.8520     band energies (ev):

    -2.0282  -1.3989   2.8228   3.0018

          k = 1.1220 0.1420 0.7520     band energies (ev):

    -2.6219  -0.6939   2.2149   3.2797

          k = 1.2220 0.2420 0.6520     band energies (ev):

    -3.0498  -0.5271   2.4141   3.7622

          k = 1.3220 0.3420 0.5520     band energies (ev):

    -3.3333  -0.7786   3.4008   4.3466

          k = 1.4220 0.4420 0.4520     band energies (ev):

    -3.5050  -0.9111   4.4074   4.7142

          k =-0.4780 0.5420 0.5520     band energies (ev):

    -3.5694  -0.8902   4.7028   4.7783

          k =-0.3780 0.6420 0.4520     band energies (ev):

    -3.3936  -0.8561   3.7604   4.5182

          k =-0.2780 0.7420 0.3520     band energies (ev):

    -3.1136  -0.6232   2.6121   3.9878

          k =-0.1780 0.8420 0.2520     band energies (ev):

    -2.7047  -0.6421   2.1142   3.5018

          k =-0.0780 0.9420 0.1520     band energies (ev):

    -2.1387  -1.2685   2.5826   3.1880

          k = 0.0220 1.0420 0.0520     band energies (ev):

    -2.0636  -1.4171   3.0894   3.1653

          k = 0.1220 1.1420-0.0480     band energies (ev):

    -2.7457  -0.6167   2.8914   3.2192

          k = 0.2220 1.2420-0.1480     band energies (ev):

    -3.2395  -0.0622   2.5291   3.5624

          k = 0.3220 1.3420-0.2480     band energies (ev):

    -3.5292  -0.2157   3.0880   4.0760

          k = 0.4220 1.4420-0.3480     band energies (ev):

    -3.6278  -0.6378   4.1413   4.6246

          k =-0.3780 0.4420 0.6520     band energies (ev):

    -3.3761  -0.8484   3.6768   4.4942

          k =-0.2780 0.5420 0.5520     band energies (ev):

    -3.4452  -0.6927   3.4446   4.5902

          k =-0.1780 0.6420 0.4520     band energies (ev):

    -3.3830  -0.3356   2.6817   4.1382

          k =-0.0780 0.7420 0.3520     band energies (ev):

    -3.1503  -0.1394   2.2775   3.3711

          k = 0.0220 0.8420 0.2520     band energies (ev):

    -2.7291  -0.5505   2.5177   2.9364

          k = 0.1220 0.9420 0.1520     band energies (ev):

    -2.1350  -1.2571   2.4023   3.2928

          k = 0.2220 1.0420 0.0520     band energies (ev):

    -1.9887  -1.3701   2.4401   2.9327

          k = 0.3220 1.1420-0.0480     band energies (ev):

    -2.5341  -0.7219   2.2119   2.8508

          k = 0.4220 1.2420-0.1480     band energies (ev):

    -2.9389  -0.5222   2.2092   3.4821

          k = 0.5220 1.3420-0.2480     band energies (ev):

    -3.2092  -0.7307   2.9081   4.2152

          k =-0.2780 0.3420 0.7520     band energies (ev):

    -3.0791  -0.6231   2.5373   3.9650

          k =-0.1780 0.4420 0.6520     band energies (ev):

    -3.3653  -0.3351   2.6687   4.0763

          k =-0.0780 0.5420 0.5520     band energies (ev):

    -3.4865   0.0296   2.1494   4.4638

          k = 0.0220 0.6420 0.4520     band energies (ev):

    -3.4128   0.1132   2.0461   4.0288

          k = 0.1220 0.7420 0.3520     band energies (ev):

    -3.1416  -0.2301   2.3342   3.4722

          k = 0.2220 0.8420 0.2520     band energies (ev):

    -2.6975  -0.6828   2.0455   3.6253

          k = 0.3220 0.9420 0.1520     band energies (ev):

    -2.1593  -1.1295   1.8314   3.1997

          k = 0.4220 1.0420 0.0520     band energies (ev):

    -1.8893  -1.3013   1.9837   2.4682

          k = 0.5220 1.1420-0.0480     band energies (ev):

    -2.2484  -0.9742   1.8001   2.8461

          k = 0.6220 1.2420-0.1480     band energies (ev):

    -2.6838  -0.7799   1.9668   3.6605

          k =-0.1780 0.2420 0.8520     band energies (ev):

    -2.6536  -0.6887   2.1021   3.4929

          k =-0.0780 0.3420 0.7520     band energies (ev):

    -3.1152  -0.1674   2.2863   3.3222

          k = 0.0220 0.4420 0.6520     band energies (ev):

    -3.3952   0.1034   2.0596   3.9538

          k = 0.1220 0.5420 0.5520     band energies (ev):

    -3.4771  -0.1236   2.3729   4.4808

          k = 0.2220 0.6420 0.4520     band energies (ev):

    -3.3726  -0.4920   2.9385   4.2003

          k = 0.3220 0.7420 0.3520     band energies (ev):

    -3.1193  -0.7053   2.7007   4.1120

          k = 0.4220 0.8420 0.2520     band energies (ev):

    -2.7702  -0.7484   2.0607   3.6808

          k = 0.5220 0.9420 0.1520     band energies (ev):

    -2.3648  -0.8675   1.8516   2.8658

          k = 0.6220 1.0420 0.0520     band energies (ev):

    -1.9405  -1.2755   2.0721   2.5115

          k = 0.7220 1.1420-0.0480     band energies (ev):

    -2.0827  -1.2271   1.9301   3.2282

          k =-0.0780 0.1420 0.9520     band energies (ev):

    -2.0726  -1.3455   2.6140   3.1953

          k = 0.0220 0.2420 0.8520     band energies (ev):

    -2.6773  -0.6147   2.5480   2.9267

          k = 0.1220 0.3420 0.7520     band energies (ev):

    -3.1065  -0.2515   2.3228   3.4343

          k = 0.2220 0.4420 0.6520     band energies (ev):

    -3.3550  -0.4891   2.9126   4.1462

          k = 0.3220 0.5420 0.5520     band energies (ev):

    -3.4493  -0.8041   3.7676   4.6306

          k = 0.4220 0.6420 0.4520     band energies (ev):

    -3.4278  -0.8782   3.9259   4.6119

          k = 0.5220 0.7420 0.3520     band energies (ev):

    -3.3064  -0.6740   3.0839   4.2543

          k = 0.6220 0.8420 0.2520     band energies (ev):

    -3.0602  -0.4089   2.3308   3.5522

          k = 0.7220 0.9420 0.1520     band energies (ev):

    -2.6553  -0.6220   2.3347   2.9839

          k = 0.8220 1.0420 0.0520     band energies (ev):

    -2.0832  -1.3135   2.6398   3.0088

          k = 0.0220 0.0420 1.0520     band energies (ev):

    -2.1399  -1.3387   3.1123   3.1742

          k = 0.1220 0.1420 0.9520     band energies (ev):

    -2.0698  -1.3314   2.4338   3.2869

          k = 0.2220 0.2420 0.8520     band energies (ev):

    -2.6468  -0.7215   2.0227   3.6056

          k = 0.3220 0.3420 0.7520     band energies (ev):

    -3.0849  -0.7013   2.6153   4.0831

          k = 0.4220 0.4420 0.6520     band energies (ev):

    -3.4103  -0.8698   3.8310   4.5884

          k = 0.5220 0.5420 0.5520     band energies (ev):

    -3.6323  -0.8234   4.8051   4.8228

          k = 0.6220 0.6420 0.4520     band energies (ev):

    -3.7199  -0.5063   4.2412   4.5827

          k = 0.7220 0.7420 0.3520     band energies (ev):

    -3.6315  -0.0521   3.1575   4.0693

          k = 0.8220 0.8420 0.2520     band energies (ev):

    -3.3387   0.0697   2.6432   3.5932

          k = 0.9220 0.9420 0.1520     band energies (ev):

    -2.8342  -0.5287   3.0138   3.2800

          k = 0.1220-0.0580 1.1520     band energies (ev):

    -2.8108  -0.5381   2.8694   3.2551

          k = 0.2220 0.0420 1.0520     band energies (ev):

    -2.0544  -1.3026   2.4886   2.8933

          k = 0.3220 0.1420 0.9520     band energies (ev):

    -2.1020  -1.1813   1.8470   3.1415

          k = 0.4220 0.2420 0.8520     band energies (ev):

    -2.7216  -0.7584   2.0022   3.6141

          k = 0.5220 0.3420 0.7520     band energies (ev):

    -3.2724  -0.6632   2.9789   4.1945

          k = 0.6220 0.4420 0.6520     band energies (ev):

    -3.7027  -0.4983   4.1417   4.5527

          k = 0.7220 0.5420 0.5520     band energies (ev):

    -3.9614  -0.1304   4.0807   4.9055

          k = 0.8220 0.6420 0.4520     band energies (ev):

    -4.0114   0.3764   3.3401   4.5005

          k = 0.9220 0.7420 0.3520     band energies (ev):

    -3.8345   0.6737   2.8659   3.7786

          k = 1.0220 0.8420 0.2520     band energies (ev):

    -3.4285   0.2458   3.0186   3.3342

          k = 0.2220-0.1580 1.2520     band energies (ev):

    -3.2898  -0.0221   2.5570   3.6078

          k = 0.3220-0.0580 1.1520     band energies (ev):

    -2.5955  -0.6639   2.2017   2.9138

          k = 0.4220 0.0420 1.0520     band energies (ev):

    -1.9145  -1.2751   2.0052   2.4478

          k = 0.5220 0.1420 0.9520     band energies (ev):

    -2.3077  -0.9110   1.8523   2.7996

          k = 0.6220 0.2420 0.8520     band energies (ev):

    -3.0109  -0.4231   2.2736   3.4825

          k = 0.7220 0.3420 0.7520     band energies (ev):

    -3.5971  -0.0513   3.0722   4.0293

          k = 0.8220 0.4420 0.6520     band energies (ev):

    -3.9939   0.3775   3.3251   4.4305

          k = 0.9220 0.5420 0.5520     band energies (ev):

    -4.1679   0.8463   2.7857   4.9165

          k = 1.0220 0.6420 0.4520     band energies (ev):

    -4.1060   0.9659   2.6516   4.4869

          k = 1.1220 0.7420 0.3520     band energies (ev):

    -3.8080   0.5481   2.9353   3.8302

          k = 0.3220-0.2580 1.3520     band energies (ev):

    -3.5635  -0.2205   3.1829   4.1222

          k = 0.4220-0.1580 1.2520     band energies (ev):

    -2.9878  -0.5120   2.2705   3.5542

          k = 0.5220-0.0580 1.1520     band energies (ev):

    -2.3047  -0.9321   1.7982   2.9126

          k = 0.6220 0.0420 1.0520     band energies (ev):

    -1.9030  -1.3143   2.0406   2.5412

          k = 0.7220 0.1420 0.9520     band energies (ev):

    -2.5928  -0.6856   2.3498   2.9230

          k = 0.8220 0.2420 0.8520     band energies (ev):

    -3.2880   0.0209   2.6260   3.5586

          k = 0.9220 0.3420 0.7520     band energies (ev):

    -3.7997   0.6440   2.8692   3.7247

          k = 1.0220 0.4420 0.6520     band energies (ev):

    -4.0883   0.9557   2.6633   4.4108

          k = 1.1220 0.5420 0.5520     band energies (ev):

    -4.1409   0.6493   3.0275   4.9169

          k = 1.2220 0.6420 0.4520     band energies (ev):

    -3.9603   0.1616   3.5981   4.5047

          k = 0.4220-0.3580 1.4520     band energies (ev):

    -3.6451  -0.6463   4.2465   4.6555

          k = 0.5220-0.2580 1.3520     band energies (ev):

    -3.2431  -0.7415   3.0118   4.2723

          k = 0.6220-0.1580 1.2520     band energies (ev):

    -2.7329  -0.7659   2.0201   3.7206

          k = 0.7220-0.0580 1.1520     band energies (ev):

    -2.1418  -1.1700   1.9096   3.2793

          k = 0.8220 0.0420 1.0520     band energies (ev):

    -2.0133  -1.3853   2.5917   3.0434

          k = 0.9220 0.1420 0.9520     band energies (ev):

    -2.7688  -0.6096   3.0317   3.2570

          k = 1.0220 0.2420 0.8520     band energies (ev):

    -3.3774   0.1767   3.0378   3.3162

          k = 1.1220 0.3420 0.7520     band energies (ev):

    -3.7732   0.5261   2.9170   3.7845

          k = 1.2220 0.4420 0.6520     band energies (ev):

    -3.9429   0.1650   3.5704   4.4389

          k = 1.3220 0.5420 0.5520     band energies (ev):

    -3.8921  -0.3263   4.3604   4.8944

          k =-0.5780 0.6420 0.6520     band energies (ev):

    -4.1755   0.0766   4.8112   4.8843

          k =-0.4780 0.7420 0.5520     band energies (ev):

    -3.7839  -0.2729   3.6959   4.7338

          k =-0.3780 0.8420 0.4520     band energies (ev):

    -3.2101  -0.4839   2.3762   4.2594

          k =-0.2780 0.9420 0.3520     band energies (ev):

    -2.5286  -0.8186   1.6487   3.7616

          k =-0.1780 1.0420 0.2520     band energies (ev):

    -2.0940  -1.2311   1.8757   3.4079

          k =-0.0780 1.1420 0.1520     band energies (ev):

    -2.7169  -0.6294   2.6743   3.2600

          k = 0.0220 1.2420 0.0520     band energies (ev):

    -3.4392   0.2389   3.3207   3.3925

          k = 0.1220 1.3420-0.0480     band energies (ev):

    -3.9761   1.0031   3.3326   3.6479

          k = 0.2220 1.4420-0.1480     band energies (ev):

    -4.2824   1.0973   3.5433   4.1615

          k = 0.3220 1.5420-0.2480     band energies (ev):

    -4.3476   0.5916   4.3013   4.8010

          k =-0.4780 0.5420 0.7520     band energies (ev):

    -3.7674  -0.2648   3.5951   4.7310

          k =-0.3780 0.6420 0.6520     band energies (ev):

    -3.5162  -0.5914   3.6536   4.3885

          k =-0.2780 0.7420 0.5520     band energies (ev):

    -3.1144  -0.7133   2.7342   3.9717

          k =-0.1780 0.8420 0.4520     band energies (ev):

    -2.6118  -0.7867   1.9850   3.2835

          k =-0.0780 0.9420 0.3520     band energies (ev):

    -2.0344  -1.2102   2.0010   2.7442

          k = 0.0220 1.0420 0.2520     band energies (ev):

    -1.9606  -1.3700   2.4758   2.7093

          k = 0.1220 1.1420 0.1520     band energies (ev):

    -2.6992  -0.6421   2.5101   3.3584

          k = 0.2220 1.2420 0.0520     band energies (ev):

    -3.2856   0.0693   2.7002   3.3000

          k = 0.3220 1.3420-0.0480     band energies (ev):

    -3.6660   0.4615   2.5379   3.7661

          k = 0.4220 1.4420-0.1480     band energies (ev):

    -3.8250   0.2023   2.9028   4.5256

          k =-0.3780 0.4420 0.8520     band energies (ev):

    -3.1790  -0.4796   2.2908   4.2463

          k =-0.2780 0.5420 0.7520     band energies (ev):

    -3.0979  -0.7091   2.6911   3.9392

          k =-0.1780 0.6420 0.6520     band energies (ev):

    -2.9323  -0.7321   2.2327   4.0797

          k =-0.0780 0.7420 0.5520     band energies (ev):

    -2.7065  -0.6556   1.7888   3.5859

          k = 0.0220 0.8420 0.4520     band energies (ev):

    -2.4141  -0.8023   1.8853   2.8319

          k = 0.1220 0.9420 0.3520     band energies (ev):

    -2.1115  -1.1493   1.8692   2.9765

          k = 0.2220 1.0420 0.2520     band energies (ev):

    -2.1630  -1.1604   1.7656   3.5405

          k = 0.3220 1.1420 0.1520     band energies (ev):

    -2.5625  -0.7646   2.0029   3.2946

          k = 0.4220 1.2420 0.0520     band energies (ev):

    -2.9185  -0.3603   2.0070   3.2936

          k = 0.5220 1.3420-0.0480     band energies (ev):

    -3.1285  -0.2369   1.8624   4.0132

          k =-0.2780 0.3420 0.9520     band energies (ev):

    -2.4912  -0.8450   1.6265   3.7569

          k =-0.1780 0.4420 0.8520     band energies (ev):

    -2.5791  -0.8014   1.9531   3.2665

          k =-0.0780 0.5420 0.7520     band energies (ev):

    -2.6886  -0.6628   1.7983   3.5133

          k = 0.0220 0.6420 0.6520     band energies (ev):

    -2.7560  -0.5878   1.6169   3.9866

          k = 0.1220 0.7420 0.5520     band energies (ev):

    -2.7570  -0.6927   1.9423   3.6315

          k = 0.2220 0.8420 0.4520     band energies (ev):

    -2.7194  -0.7555   2.0458   3.4958

          k = 0.3220 0.9420 0.3520     band energies (ev):

    -2.6682  -0.7012   1.6579   3.9157

          k = 0.4220 1.0420 0.2520     band energies (ev):

    -2.5929  -0.7201   1.6717   3.5670

          k = 0.5220 1.1420 0.1520     band energies (ev):

    -2.5067  -0.8254   1.9255   3.0999

          k = 0.6220 1.2420 0.0520     band energies (ev):

    -2.4639  -0.8556   1.6577   3.5750

          k =-0.1780 0.2420 1.0520     band energies (ev):

    -2.1291  -1.2010   1.9093   3.4167

          k =-0.0780 0.3420 0.9520     band energies (ev):

    -1.9875  -1.2636   2.0140   2.7562

          k = 0.0220 0.4420 0.8520     band energies (ev):

    -2.3783  -0.8335   1.9123   2.7744

          k = 0.1220 0.5420 0.7520     band energies (ev):

    -2.7394  -0.6973   1.9448   3.5636

          k = 0.2220 0.6420 0.6520     band energies (ev):

    -3.0332  -0.7517   2.5160   4.1310

          k = 0.3220 0.7420 0.5520     band energies (ev):

    -3.2537  -0.6613   2.9700   4.1211

          k = 0.4220 0.8420 0.4520     band energies (ev):

    -3.3599  -0.3628   2.4984   4.4166

          k = 0.5220 0.9420 0.3520     band energies (ev):

    -3.3060  -0.0628   2.0277   4.0328

          k = 0.6220 1.0420 0.2520     band energies (ev):

    -3.0674  -0.1882   2.1468   3.3025

          k = 0.7220 1.1420 0.1520     band energies (ev):

    -2.6526  -0.6702   2.1207   3.3324

          k =-0.0780 0.1420 1.1520     band energies (ev):

    -2.7909  -0.5486   2.7257   3.2824

          k = 0.0220 0.2420 1.0520     band energies (ev):

    -2.0365  -1.3019   2.5091   2.7476

          k = 0.1220 0.3420 0.9520     band energies (ev):

    -2.0694  -1.1950   1.8736   2.9909

          k = 0.2220 0.4420 0.8520     band energies (ev):

    -2.6876  -0.7644   1.9973   3.4869

          k = 0.3220 0.5420 0.7520     band energies (ev):

    -3.2373  -0.6555   2.9104   4.1016

          k = 0.4220 0.6420 0.6520     band energies (ev):

    -3.6679  -0.4835   3.9767   4.4785

          k = 0.5220 0.7420 0.5520     band energies (ev):

    -3.9276  -0.1140   3.8699   4.8658

          k = 0.6220 0.8420 0.4520     band energies (ev):

    -3.9795   0.3849   3.1550   4.5302

          k = 0.7220 0.9420 0.3520     band energies (ev):

    -3.8053   0.6503   2.7592   3.7808

          k = 0.8220 1.0420 0.2520     band energies (ev):

    -3.4033   0.2134   2.9065   3.3497

          k = 0.0220 0.0420 1.2520     band energies (ev):

    -3.5042   0.3279   3.3586   3.4147

          k = 0.1220 0.1420 1.1520     band energies (ev):

    -2.7716  -0.5633   2.5639   3.3675

          k = 0.2220 0.2420 1.0520     band energies (ev):

    -2.1831  -1.1446   1.7969   3.5358

          k = 0.3220 0.3420 0.9520     band energies (ev):

    -2.6298  -0.7248   1.6293   3.8988

          k = 0.4220 0.4420 0.8520     band energies (ev):

    -3.3285  -0.3568   2.4074   4.3940

          k = 0.5220 0.5420 0.7520     band energies (ev):

    -3.9109  -0.1059   3.7653   4.8562

          k = 0.6220 0.6420 0.6520     band energies (ev):

    -4.2999   0.2771   4.9099   4.9713

          k = 0.7220 0.7420 0.5520     band energies (ev):

    -4.4618   0.8137   4.5254   4.6725

          k = 0.8220 0.8420 0.4520     band energies (ev):

    -4.3818   1.3091   3.6993   4.1152

          k = 0.9220 0.9420 0.3520     band energies (ev):

    -4.0584   1.1412   3.4729   3.6739

          k = 0.1220-0.0580 1.3520     band energies (ev):

    -4.0265   1.0731   3.3510   3.6868

          k = 0.2220 0.0420 1.2520     band energies (ev):

    -3.3476   0.1479   2.7362   3.3124

          k = 0.3220 0.1420 1.1520     band energies (ev):

    -2.6122  -0.7110   2.0462   3.2656

          k = 0.4220 0.2420 1.0520     band energies (ev):

    -2.5613  -0.7539   1.6895   3.5147

          k = 0.5220 0.3420 0.9520     band energies (ev):

    -3.2613  -0.0856   1.9816   3.9694

          k = 0.6220 0.4420 0.8520     band energies (ev):

    -3.9463   0.3885   3.0552   4.4739

          k = 0.7220 0.5420 0.7520     band energies (ev):

    -4.4445   0.8186   4.4236   4.6497

          k = 0.8220 0.6420 0.6520     band energies (ev):

    -4.7115   1.3507   4.2208   5.2599

          k = 0.9220 0.7420 0.5520     band energies (ev):

    -4.7307   1.8638   3.6440   4.8815

          k = 1.0220 0.8420 0.4520     band energies (ev):

    -4.4992   1.7943   3.5546   4.1189

          k = 0.2220-0.1580 1.4520     band energies (ev):

    -4.3166   1.1075   3.6307   4.1999

          k = 0.3220-0.0580 1.3520     band energies (ev):

    -3.7143   0.4986   2.5816   3.8297

          k = 0.4220 0.0420 1.2520     band energies (ev):

    -2.9697  -0.3031   2.0056   3.3425

          k = 0.5220 0.1420 1.1520     band energies (ev):

    -2.4994  -0.8333   1.9188   3.1054

          k = 0.6220 0.2420 1.0520     band energies (ev):

    -3.0128  -0.2509   2.1416   3.2596

          k = 0.7220 0.3420 0.9520     band energies (ev):

    -3.7564   0.6065   2.7191   3.7211

          k = 0.8220 0.4420 0.8520     band energies (ev):

    -4.3475   1.2922   3.6261   4.0790

          k = 0.9220 0.5420 0.7520     band energies (ev):

    -4.7131   1.8565   3.6451   4.7996

          k = 1.0220 0.6420 0.6520     band energies (ev):

    -4.8310   2.0747   3.4341   5.3658

          k = 1.1220 0.7420 0.5520     band energies (ev):

    -4.6968   1.6572   3.8588   4.8380

          k = 0.3220-0.2580 1.5520     band energies (ev):

    -4.3647   0.5856   4.4041   4.8292

          k = 0.4220-0.1580 1.4520     band energies (ev):

    -3.8578   0.1968   3.0026   4.5797

          k = 0.5220-0.0580 1.3520     band energies (ev):

    -3.1719  -0.2157   1.9065   4.0710

          k = 0.6220 0.0420 1.2520     band energies (ev):

    -2.4870  -0.8306   1.6365   3.6220

          k = 0.7220 0.1420 1.1520     band energies (ev):

    -2.5954  -0.7323   2.0720   3.3598

          k = 0.8220 0.2420 1.0520     band energies (ev):

    -3.3401   0.1313   2.8627   3.3439

          k = 0.9220 0.3420 0.9520     band energies (ev):

    -4.0077   1.0656   3.4600   3.6410

          k = 1.0220 0.4420 0.8520     band energies (ev):

    -4.4645   1.7516   3.5622   4.0539

          k = 1.1220 0.5420 0.7520     band energies (ev):

    -4.6794   1.6537   3.8527   4.7544

          k = 1.2220 0.6420 0.6520     band energies (ev):

    -4.6446   1.0993   4.4841   5.2013

          k =-0.6780 0.7420 0.7520     band energies (ev):

    -4.9129   1.6474   5.0112   5.1793

          k =-0.5780 0.8420 0.6520     band energies (ev):

    -4.5364   1.1273   3.8145   5.0955

          k =-0.4780 0.9420 0.5520     band energies (ev):

    -3.9364   0.6135   2.4699   4.6872

          k =-0.3780 1.0420 0.4520     band energies (ev):

    -3.1946  -0.1798   1.8482   4.1974

          k =-0.2780 1.1420 0.3520     band energies (ev):

    -2.7071  -0.7784   1.9436   3.8218

          k =-0.1780 1.2420 0.2520     band energies (ev):

    -3.1823  -0.1918   2.4476   3.6388

          k =-0.0780 1.3420 0.1520     band energies (ev):

    -3.9338   0.9061   3.1972   3.6841

          k = 0.0220 1.4420 0.0520     band energies (ev):

    -4.5388   1.9741   3.8649   3.9350

          k = 0.1220 1.5420-0.0480     band energies (ev):

    -4.9157   2.5621   4.0757   4.4618

          k = 0.2220 1.6420-0.1480     band energies (ev):

    -5.0418   2.2360   4.5702   5.1523

          k =-0.5780 0.6420 0.8520     band energies (ev):

    -4.5198   1.1303   3.7095   5.1061

          k =-0.4780 0.7420 0.7520     band energies (ev):

    -4.2367   0.6177   4.0274   4.3689

          k =-0.3780 0.8420 0.6520     band energies (ev):

    -3.7277   0.1920   2.9286   4.0924

          k =-0.2780 0.9420 0.5520     band energies (ev):

    -3.0399  -0.2774   1.9879   3.5424

          k =-0.1780 1.0420 0.4520     band energies (ev):

    -2.3539  -0.8973   1.7358   3.0832

          k =-0.0780 1.1420 0.3520     band energies (ev):

    -2.5000  -0.7597   2.0768   2.9160

          k = 0.0220 1.2420 0.2520     band energies (ev):

    -3.2473   0.0374   2.6154   3.2257

          k = 0.1220 1.3420 0.1520     band energies (ev):

    -3.9038   0.8175   3.1415   3.7334

          k = 0.2220 1.4420 0.0520     band energies (ev):

    -4.3512   1.4377   3.2788   4.1825

          k = 0.3220 1.5420-0.0480     band energies (ev):

    -4.5594   1.5821   3.1953   4.9573

          k =-0.4780 0.5420 0.9520     band energies (ev):

    -3.9059   0.5968   2.3994   4.6804

          k =-0.3780 0.6420 0.8520     band energies (ev):

    -3.7124   0.1940   2.8557   4.0959

          k =-0.2780 0.7420 0.7520     band energies (ev):

    -3.3077  -0.2337   2.6404   3.8688

          k =-0.1780 0.8420 0.6520     band energies (ev):

    -2.7298  -0.6383   2.0823   3.3544

          k =-0.0780 0.9420 0.5520     band energies (ev):

    -2.0502  -1.1425   1.9269   2.5541

          k = 0.0220 1.0420 0.4520     band energies (ev):

    -1.8181  -1.3535   2.0286   2.3320

          k = 0.1220 1.1420 0.3520     band energies (ev):

    -2.5211  -0.7754   2.0067   3.1048

          k = 0.2220 1.2420 0.2520     band energies (ev):

    -3.1497  -0.2979   2.4288   3.7471

          k = 0.3220 1.3420 0.1520     band energies (ev):

    -3.6147   0.1568   2.8048   3.8860

          k = 0.4220 1.4420 0.0520     band energies (ev):

    -3.8729   0.5746   2.4313   4.5000

          k =-0.3780 0.4420 1.0520     band energies (ev):

    -3.1612  -0.2317   1.8504   4.1950

          k =-0.2780 0.5420 0.9520     band energies (ev):

    -3.0142  -0.2932   1.9402   3.5491

          k =-0.1780 0.6420 0.8520     band energies (ev):

    -2.7156  -0.6406   2.0752   3.2979

          k =-0.0780 0.7420 0.7520     band energies (ev):

    -2.3340  -1.0053   1.7646   3.6198

          k = 0.0220 0.8420 0.6520     band energies (ev):

    -2.1000  -1.1694   1.7542   3.1626

          k = 0.1220 0.9420 0.5520     band energies (ev):

    -2.2593  -0.9548   1.9061   2.7150

          k = 0.2220 1.0420 0.4520     band energies (ev):

    -2.5388  -0.7466   1.7117   3.3433

          k = 0.3220 1.1420 0.3520     band energies (ev):

    -2.7948  -0.7409   1.9837   3.9687

          k = 0.4220 1.2420 0.2520     band energies (ev):

    -3.0088  -0.7077   2.5042   3.8522

          k = 0.5220 1.3420 0.1520     band energies (ev):

    -3.1486  -0.4918   2.3101   4.0840

          k =-0.2780 0.3420 1.1520     band energies (ev):

    -2.7266  -0.7724   1.9844   3.8303

          k =-0.1780 0.4420 1.0520     band energies (ev):

    -2.3497  -0.9107   1.7390   3.1083

          k =-0.0780 0.5420 0.9520     band energies (ev):

    -2.0261  -1.1602   1.9315   2.5184

          k = 0.0220 0.6420 0.8520     band energies (ev):

    -2.0820  -1.1782   1.7687   3.0862

          k = 0.1220 0.7420 0.7520     band energies (ev):

    -2.5215  -0.8504   1.8824   3.6509

          k = 0.2220 0.8420 0.6520     band energies (ev):

    -2.9552  -0.4574   2.2473   3.4671

          k = 0.3220 0.9420 0.5520     band energies (ev):

    -3.2526  -0.0869   2.0599   3.8126

          k = 0.4220 1.0420 0.4520     band energies (ev):

    -3.3694  -0.0081   1.9421   4.3662

          k = 0.5220 1.1420 0.3520     band energies (ev):

    -3.2991  -0.3073   2.3930   4.0914

          k = 0.6220 1.2420 0.2520     band energies (ev):

    -3.0665  -0.6085   2.5157   3.8513

          k =-0.1780 0.2420 1.2520     band energies (ev):

    -3.2502  -0.1148   2.5074   3.6585

          k =-0.0780 0.3420 1.1520     band energies (ev):

[...]

    -4.3051   1.3663   3.0973   4.2424

          k = 0.1220 1.5420 0.1520     band energies (ev):

    -4.8321   2.1497   4.2004   4.4315

          k = 0.2220 1.6420 0.0520     band energies (ev):

    -5.1198   2.7184   4.1095   5.3019

          k =-0.5780 0.6420 1.0520     band energies (ev):

    -4.5895   1.5822   3.1956   5.1463

          k =-0.4780 0.7420 0.9520     band energies (ev):

    -4.4472   1.5196   3.2402   4.4644

          k =-0.3780 0.8420 0.8520     band energies (ev):

    -4.0614   0.9692   3.2821   3.8609

          k =-0.2780 0.9420 0.7520     band energies (ev):

    -3.4559   0.2629   2.6791   3.4247

          k =-0.1780 1.0420 0.6520     band energies (ev):

    -2.7082  -0.5357   2.1678   2.9395

          k =-0.0780 1.1420 0.5520     band energies (ev):

    -2.2759  -0.9733   1.8104   2.9308

          k = 0.0220 1.2420 0.4520     band energies (ev):

    -2.8475  -0.4150   1.8918   3.3078

          k = 0.1220 1.3420 0.3520     band energies (ev):

    -3.5700   0.1560   2.6263   3.8694

          k = 0.2220 1.4420 0.2520     band energies (ev):

    -4.1366   0.6082   3.7118   4.2331

          k = 0.3220 1.5420 0.1520     band energies (ev):

    -4.4839   1.1101   3.7223   4.9057

          k =-0.4780 0.5420 1.1520     band energies (ev):

    -3.8539   0.1824   2.9357   4.7008

          k =-0.3780 0.6420 1.0520     band energies (ev):

    -3.7600   0.5187   2.4951   4.0322

          k =-0.2780 0.7420 0.9520     band energies (ev):

    -3.4425   0.2518   2.6446   3.4064

          k =-0.1780 0.8420 0.8520     band energies (ev):

    -2.9128  -0.3983   2.4812   3.4448

          k =-0.0780 0.9420 0.7520     band energies (ev):

    -2.2118  -1.1130   2.3506   2.9211

          k = 0.0220 1.0420 0.6520     band energies (ev):

    -1.7987  -1.4399   2.1335   2.5366

          k = 0.1220 1.1420 0.5520     band energies (ev):

    -2.4091  -0.8842   1.8775   3.0245

          k = 0.2220 1.2420 0.4520     band energies (ev):

    -2.9601  -0.7006   2.4155   3.7266

          k = 0.3220 1.3420 0.3520     band energies (ev):

    -3.4184  -0.5718   3.3086   4.2621

          k = 0.4220 1.4420 0.2520     band energies (ev):

    -3.7314  -0.2721   3.5717   4.5724

          k =-0.3780 0.4420 1.2520     band energies (ev):

    -3.2445  -0.7471   2.9859   4.3534

          k =-0.2780 0.5420 1.1520     band energies (ev):

    -3.0354  -0.5046   2.2729   3.6848

          k =-0.1780 0.6420 1.0520     band energies (ev):

    -2.6923  -0.5560   2.1306   2.9560

          k =-0.0780 0.7420 0.9520     band energies (ev):

    -2.2015  -1.1143   2.3598   2.8498

          k = 0.0220 0.8420 0.8520     band energies (ev):

    -1.9194  -1.4662   2.2587   3.3258

          k = 0.1220 0.9420 0.7520     band energies (ev):

    -2.5000  -0.8075   2.3929   2.9823

          k = 0.2220 1.0420 0.6520     band energies (ev):

    -2.9617  -0.2830   2.2113   3.1360

          k = 0.3220 1.1420 0.5520     band energies (ev):

    -3.2460  -0.3137   2.3813   3.8933

          k = 0.4220 1.2420 0.4520     band energies (ev):

    -3.3638  -0.6465   3.0791   4.4854

          k = 0.5220 1.3420 0.3520     band energies (ev):

    -3.3524  -0.8345   3.5692   4.4320

          k =-0.2780 0.3420 1.3520     band energies (ev):

    -3.5110  -0.3675   3.2485   4.1836

          k =-0.1780 0.4420 1.2520     band energies (ev):

    -2.9668  -0.5955   2.3104   3.6175

          k =-0.0780 0.5420 1.1520     band energies (ev):

    -2.3186  -0.9377   1.8060   2.9695

          k = 0.0220 0.6420 1.0520     band energies (ev):

    -1.8168  -1.4147   2.0747   2.5642

          k = 0.1220 0.7420 0.9520     band energies (ev):

    -2.4891  -0.8103   2.3950   2.9196

          k = 0.2220 0.8420 0.8520     band energies (ev):

    -3.1861  -0.0864   2.6081   3.5115

          k = 0.3220 0.9420 0.7520     band energies (ev):

    -3.7008   0.5534   2.7946   3.6116

          k = 0.4220 1.0420 0.6520     band energies (ev):

    -3.9944   0.8140   2.6390   4.2880

          k = 0.5220 1.1420 0.5520     band energies (ev):

    -4.0550   0.4605   3.0746   4.8618

          k = 0.6220 1.2420 0.4520     band energies (ev):

    -3.8873  -0.0193   3.6663   4.5458

          k =-0.1780 0.2420 1.4520     band energies (ev):

    -4.2588   0.9186   3.6556   4.2409

          k =-0.0780 0.3420 1.3520     band energies (ev):

    -3.6624   0.3789   2.5523   3.8680

          k = 0.0220 0.4420 1.2520     band energies (ev):

    -2.9220  -0.3421   1.9272   3.3552

          k = 0.1220 0.5420 1.1520     band energies (ev):

    -2.4358  -0.8696   1.8785   3.0616

          k = 0.2220 0.6420 1.0520     band energies (ev):

    -2.9423  -0.3122   2.1794   3.1521

          k = 0.3220 0.7420 0.9520     band energies (ev):

    -3.6867   0.5399   2.7498   3.6059

          k = 0.4220 0.8420 0.8520     band energies (ev):

    -4.2785   1.2504   3.5280   3.9898

          k = 0.5220 0.9420 0.7520     band energies (ev):

    -4.6455   1.8085   3.4857   4.6971

          k = 0.6220 1.0420 0.6520     band energies (ev):

    -4.7656   1.9135   3.3956   5.3089

          k = 0.7220 1.1420 0.5520     band energies (ev):

    -4.6345   1.4464   3.8867   4.8682

          k =-0.0780 0.1420 1.5520     band energies (ev):

    -4.9177   2.4522   4.1284   4.5310

          k = 0.0220 0.2420 1.4520     band energies (ev):

    -4.3696   1.4721   3.1766   4.2818

          k = 0.1220 0.3420 1.3520     band energies (ev):

    -3.6413   0.2390   2.6931   3.9109

          k = 0.2220 0.4420 1.2520     band energies (ev):

    -3.0011  -0.6758   2.4640   3.7617

          k = 0.3220 0.5420 1.1520     band energies (ev):

    -3.2224  -0.3747   2.4058   3.9182

          k = 0.4220 0.6420 1.0520     band energies (ev):

    -3.9659   0.7489   2.6230   4.3048

          k = 0.5220 0.7420 0.9520     band energies (ev):

    -4.6294   1.7889   3.4091   4.7253

          k = 0.6220 0.8420 0.8520     band energies (ev):

    -5.0795   2.4837   4.6945   4.8102

          k = 0.7220 0.9420 0.7520     band energies (ev):

    -5.2820   3.0439   4.3884   5.6380

          k = 0.8220 1.0420 0.6520     band energies (ev):

    -5.2273   3.0711   4.3233   5.2435

          k = 0.0220 0.0420 1.6520     band energies (ev):

    -5.3586   3.7833   4.7334   4.8000

          k = 0.1220 0.1420 1.5520     band energies (ev):

    -4.8823   2.2631   4.2832   4.4436

          k = 0.2220 0.2420 1.4520     band energies (ev):

    -4.1975   0.7040   3.7823   4.2466

          k = 0.3220 0.3420 1.3520     band energies (ev):

    -3.4670  -0.5192   3.3667   4.2683

          k = 0.4220 0.4420 1.2520     band energies (ev):

    -3.3440  -0.6928   3.1238   4.4809

          k = 0.5220 0.5420 1.1520     band energies (ev):

    -4.0136   0.3670   3.1014   4.8480

          k = 0.6220 0.6420 1.0520     band energies (ev):

    -4.7332   1.8258   3.3854   5.2933

          k = 0.7220 0.7420 0.9520     band energies (ev):

    -5.2650   3.0220   4.3024   5.6417

          k = 0.8220 0.8420 0.8520     band energies (ev):

    -5.5547   3.7415   5.5167   5.6231

          k = 0.9220 0.9420 0.7520     band energies (ev):

    -5.5864   4.2662   5.1997   5.4014

          k = 0.1220-0.0580 1.7520     band energies (ev):

    -5.5486   4.0154   5.0750   5.5440

          k = 0.2220 0.0420 1.6520     band energies (ev):

    -5.1536   2.8163   4.1222   5.3592

          k = 0.3220 0.1420 1.5520     band energies (ev):

    -4.5311   1.2148   3.7072   4.9631

          k = 0.4220 0.2420 1.4520     band energies (ev):

    -3.7785  -0.1945   3.5517   4.6102

          k = 0.5220 0.3420 1.3520     band energies (ev):

    -3.3453  -0.8420   3.5599   4.4335

          k = 0.6220 0.4420 1.2520     band energies (ev):

    -3.8357  -0.1024   3.6735   4.5057

          k = 0.7220 0.5420 1.1520     band energies (ev):

    -4.5863   1.3394   3.8959   4.8033

          k = 0.8220 0.6420 1.0520     band energies (ev):

    -5.1932   2.9707   4.3087   5.1799

          k = 0.9220 0.7420 0.9520     band energies (ev):

    -5.5689   4.2396   5.1304   5.3565

          k = 1.0220 0.8420 0.8520     band energies (ev):

    -5.6893   4.5832   5.2819   5.9009

          k =-0.8780 0.9420 0.9520     band energies (ev):

    -5.8060   5.2482   5.7479   5.8734

          k =-0.7780 1.0420 0.8520     band energies (ev):

    -5.5782   4.0976   5.0459   5.7354

          k =-0.6780 1.1420 0.7520     band energies (ev):

    -5.1013   2.3312   4.5993   5.3827

          k =-0.5780 1.2420 0.6520     band energies (ev):

    -4.4156   0.6641   4.3411   5.0121

          k =-0.4780 1.3420 0.5520     band energies (ev):

    -3.6864  -0.6044   4.2473   4.7526

          k =-0.3780 1.4420 0.4520     band energies (ev):

    -3.5577  -0.7944   4.2749   4.6815

          k =-0.2780 1.5420 0.3520     band energies (ev):

    -4.2215   0.2888   4.3841   4.8424

          k =-0.1780 1.6420 0.2520     band energies (ev):

    -4.9441   1.8878   4.6109   5.1750

          k =-0.0780 1.7420 0.1520     band energies (ev):

    -5.4799   3.6706   4.9905   5.5544

          k = 0.0220 1.8420 0.0520     band energies (ev):

    -5.7728   5.1580   5.5832   5.7469

          k =-0.7780 0.8420 1.0520     band energies (ev):

    -5.5610   3.9946   5.0373   5.7405

          k =-0.6780 0.9420 0.9520     band energies (ev):

    -5.4195   3.8634   4.8712   4.9544

          k =-0.5780 1.0420 0.8520     band energies (ev):

    -5.0245   2.7220   4.1177   4.7381

          k =-0.4780 1.1420 0.7520     band energies (ev):

    -4.4017   1.2002   3.6384   4.3928

          k =-0.3780 1.2420 0.6520     band energies (ev):

    -3.6488  -0.1652   3.2956   4.2016

          k =-0.2780 1.3420 0.5520     band energies (ev):

    -3.2185  -0.7928   3.0593   4.2700

          k =-0.1780 1.4420 0.4520     band energies (ev):

    -3.7165  -0.0536   2.9925   4.5571

          k =-0.0780 1.5420 0.3520     band energies (ev):

    -4.4659   1.3202   3.1833   4.9787

          k = 0.0220 1.6420 0.2520     band energies (ev):

    -5.0696   2.6280   3.8848   5.3747

          k = 0.1220 1.7420 0.1520     band energies (ev):

    -5.4425   3.4257   5.1527   5.4711

          k =-0.6780 0.7420 1.1520     band energies (ev):

    -5.0683   2.2138   4.6107   5.3779

          k =-0.5780 0.8420 1.0520     band energies (ev):

    -5.0080   2.6445   4.1030   4.7602

          k =-0.4780 0.9420 0.9520     band energies (ev):

    -4.6945   2.2455   3.9820   4.0612

          k =-0.3780 1.0420 0.8520     band energies (ev):

    -4.1438   1.2399   3.3580   3.7801

          k =-0.2780 1.1420 0.7520     band energies (ev):

    -3.4135   0.1029   2.6373   3.6236

          k =-0.1780 1.2420 0.6520     band energies (ev):

    -2.7805  -0.7221   2.0939   3.7234

          k =-0.0780 1.3420 0.5520     band energies (ev):

    -3.0416  -0.3891   1.8850   4.0424

          k = 0.0220 1.4420 0.4520     band energies (ev):

    -3.7839   0.5030   2.2508   4.5106

          k = 0.1220 1.5420 0.3520     band energies (ev):

    -4.4349   1.1142   3.4194   4.9640

          k = 0.2220 1.6420 0.2520     band energies (ev):

    -4.8739   1.6310   4.8190   5.0799

          k =-0.5780 0.6420 1.2520     band energies (ev):

    -4.3719   0.5604   4.3660   5.0129

          k =-0.4780 0.7420 1.1520     band energies (ev):

    -4.3720   1.1029   3.6514   4.4124

          k =-0.3780 0.8420 1.0520     band energies (ev):

    -4.1291   1.2023   3.3185   3.7917

          k =-0.2780 0.9420 0.9520     band energies (ev):

    -3.6506   0.5371   3.3345   3.4831

          k =-0.1780 1.0420 0.8520     band energies (ev):

    -2.9680  -0.3379   2.8756   3.2192

          k =-0.0780 1.1420 0.7520     band energies (ev):

    -2.2381  -1.0897   2.0366   3.2938

          k = 0.0220 1.2420 0.6520     band energies (ev):

    -2.3653  -0.9394   1.6161   3.5959

          k = 0.1220 1.3420 0.5520     band energies (ev):

    -3.0579  -0.4892   2.0790   4.0707

          k = 0.2220 1.4420 0.4520     band energies (ev):

    -3.6826  -0.2495   3.2885   4.5807

          k = 0.3220 1.5420 0.3520     band energies (ev):

    -4.1352   0.0726   4.6107   4.7830

          k =-0.4780 0.5420 1.3520     band energies (ev):

    -3.6550  -0.6653   4.2866   4.7607

          k =-0.3780 0.6420 1.2520     band energies (ev):

    -3.6193  -0.2439   3.3294   4.2299

          k =-0.2780 0.7420 1.1520     band energies (ev):

    -3.3918   0.0498   2.6176   3.6483

          k =-0.1780 0.8420 1.0520     band energies (ev):

    -2.9571  -0.3456   2.8070   3.2317

          k =-0.0780 0.9420 0.9520     band energies (ev):

    -2.3237  -1.1285   3.0272   3.2047

          k = 0.0220 1.0420 0.8520     band energies (ev):

    -1.8842  -1.5456   2.7344   3.0670

          k = 0.1220 1.1420 0.7520     band energies (ev):

    -2.4988  -0.8266   2.1134   3.3336

          k = 0.2220 1.2420 0.6520     band energies (ev):

    -2.9629  -0.6219   2.3290   3.7963

          k = 0.3220 1.3420 0.5520     band energies (ev):

    -3.3003  -0.8138   3.3594   4.3546

          k = 0.4220 1.4420 0.4520     band energies (ev):

    -3.5353  -0.8789   4.4614   4.7167

          k =-0.3780 0.4420 1.4520     band energies (ev):

    -3.5936  -0.7560   4.3319   4.6924

          k =-0.2780 0.5420 1.3520     band energies (ev):

    -3.2431  -0.7902   3.1126   4.3066

          k =-0.1780 0.6420 1.2520     band energies (ev):

    -2.7915  -0.7351   2.1062   3.7603

          k =-0.0780 0.7420 1.1520     band energies (ev):

    -2.2421  -1.0816   1.9806   3.3210

          k = 0.0220 0.8420 1.0520     band energies (ev):

    -1.8822  -1.5379   2.6565   3.0811

          k = 0.1220 0.9420 0.9520     band energies (ev):

    -2.6371  -0.7719   3.0653   3.2393

          k = 0.2220 1.0420 0.8520     band energies (ev):

    -3.2496   0.0113   2.9541   3.3062

          k = 0.3220 1.1420 0.7520     band energies (ev):

    -3.6526   0.3508   2.8423   3.7513

          k = 0.4220 1.2420 0.6520     band energies (ev):

    -3.8347  -0.0066   3.5627   4.3631

          k = 0.5220 1.3420 0.5520     band energies (ev):

    -3.8055  -0.4756   4.4117   4.8559

          k =-0.2780 0.3420 1.5520     band energies (ev):

    -4.2796   0.3817   4.4560   4.8558

          k =-0.1780 0.4420 1.4520     band energies (ev):

    -3.7840   0.0224   3.0635   4.5989

          k =-0.0780 0.5420 1.3520     band energies (ev):

    -3.1120  -0.3235   1.9251   4.0887

          k = 0.0220 0.6420 1.2520     band energies (ev):

    -2.4227  -0.8852   1.6078   3.6348

          k = 0.1220 0.7420 1.1520     band energies (ev):

    -2.4931  -0.8333   2.0627   3.3605

          k = 0.2220 0.8420 1.0520     band energies (ev):

    -3.2376  -0.0016   2.8907   3.3180

          k = 0.3220 0.9420 0.9520     band energies (ev):

    -3.9061   0.9136   3.4482   3.5854

          k = 0.4220 1.0420 0.8520     band energies (ev):

    -4.3643   1.5769   3.5040   3.9607

          k = 0.5220 1.1420 0.7520     band energies (ev):

    -4.5820   1.4407   3.8586   4.6206

          k = 0.6220 1.2420 0.6520     band energies (ev):

    -4.5520   0.8829   4.5188   5.1369

          k =-0.1780 0.2420 1.6520     band energies (ev):

    -4.9936   2.0032   4.6925   5.1918

          k =-0.0780 0.3420 1.5520     band energies (ev):

    -4.5300   1.4248   3.2684   5.0203

          k = 0.0220 0.4420 1.4520     band energies (ev):

    -3.8579   0.5940   2.3161   4.5600

          k = 0.1220 0.5420 1.3520     band energies (ev):

    -3.1225  -0.4340   2.1232   4.1159

          k = 0.2220 0.6420 1.2520     band energies (ev):

    -2.9612  -0.6546   2.3481   3.8320

          k = 0.3220 0.7420 1.1520     band energies (ev):

    -3.6284   0.2858   2.8321   3.7749

          k = 0.4220 0.8420 1.0520     band energies (ev):

    -4.3492   1.5306   3.4714   3.9738

          k = 0.5220 0.9420 0.9520     band energies (ev):

    -4.8823   2.6138   4.1671   4.2264

          k = 0.6220 1.0420 0.8520     band energies (ev):

    -5.1750   3.0320   4.3136   4.9800

          k = 0.7220 1.1420 0.7520     band energies (ev):

    -5.2124   2.5955   4.7970   5.5086

          k =-0.0780 0.1420 1.7520     band energies (ev):

    -5.5143   3.7974   5.0746   5.5703

          k = 0.0220 0.2420 1.6520     band energies (ev):

    -5.1201   2.7496   3.9779   5.4060

          k = 0.1220 0.3420 1.5520     band energies (ev):

    -4.4983   1.2163   3.5046   5.0020

          k = 0.2220 0.4420 1.4520     band energies (ev):

    -3.7460  -0.1795   3.3593   4.6180

          k = 0.3220 0.5420 1.3520     band energies (ev):

    -3.3107  -0.8277   3.4129   4.3870

          k = 0.4220 0.6420 1.2520     band energies (ev):

    -3.8007  -0.0931   3.5975   4.3881

          k = 0.5220 0.7420 1.1520     band energies (ev):

    -4.5515   1.3372   3.8737   4.6386

          k = 0.6220 0.8420 1.0520     band energies (ev):

    -5.1583   2.9468   4.3017   5.0035

          k = 0.7220 0.9420 0.9520     band energies (ev):

    -5.5340   4.1938   5.0740   5.1880

          k = 0.8220 1.0420 0.8520     band energies (ev):

    -5.6546   4.3883   5.2452   5.8533

          k = 0.0220 0.0420 1.8520     band energies (ev):

    -5.7902   5.2719   5.6402   5.7574

          k = 0.1220 0.1420 1.7520     band energies (ev):

    -5.4768   3.5507   5.2188   5.4934

          k = 0.2220 0.2420 1.6520     band energies (ev):

    -4.9228   1.7449   4.8816   5.0987

          k = 0.3220 0.3420 1.5520     band energies (ev):

    -4.1907   0.1621   4.6722   4.7873

          k = 0.4220 0.4420 1.4520     band energies (ev):

    -3.5595  -0.8533   4.5054   4.7198

          k = 0.5220 0.5420 1.3520     band energies (ev):

    -3.7666  -0.5454   4.4421   4.8519

          k = 0.6220 0.6420 1.2520     band energies (ev):

    -4.5066   0.7762   4.5382   5.1227

          k = 0.7220 0.7420 1.1520     band energies (ev):

    -5.1790   2.4757   4.8049   5.4883

          k = 0.8220 0.8420 1.0520     band energies (ev):

    -5.6373   4.2828   5.2356   5.8435

          k = 0.9220 0.9420 0.9520     band energies (ev):

    -5.8445   5.4930   5.8843   5.9450

     Writing output data file silicon.save
 
     init_run     :      0.05s CPU      0.09s WALL (       1 calls)
     electrons    :     31.79s CPU     38.24s WALL (       1 calls)

     Called by init_run:
     wfcinit      :      0.00s CPU      0.00s WALL (       1 calls)
     potinit      :      0.00s CPU      0.01s WALL (       1 calls)

     Called by electrons:
     c_bands      :     31.79s CPU     38.23s WALL (       1 calls)
     v_of_rho     :      0.00s CPU      0.00s WALL (       1 calls)

     Called by c_bands:
     init_us_2    :      0.00s CPU      0.04s WALL (    1000 calls)
     cegterg      :     28.95s CPU     29.40s WALL (    1364 calls)

     Called by *egterg:
     h_psi        :      5.26s CPU     14.52s WALL (   22345 calls)
     g_psi        :      0.02s CPU      0.09s WALL (   19981 calls)
     cdiaghg      :     24.18s CPU     13.38s WALL (   20981 calls)

     Called by h_psi:
     add_vuspsi   :      0.10s CPU      0.26s WALL (   22345 calls)

     General routines
     calbec       :      0.20s CPU      0.46s WALL (   22345 calls)
     fft          :      0.01s CPU      0.01s WALL (       3 calls)
     fftw         :      4.67s CPU     12.79s WALL (  152322 calls)
     davcio       :      0.00s CPU      0.03s WALL (    2000 calls)
 
     Parallel routines
     fft_scatter  :      2.60s CPU      5.55s WALL (  152325 calls)
     EXX routines
 
     PWSCF        :    34.27s CPU        50.97s WALL

 
   This run was terminated on:  16:14:25  24Feb2012            

=------------------------------------------------------------------------------=
   JOB DONE.
=------------------------------------------------------------------------------=
Application 6032771 resources: utime ~348s, stime ~10s
