
     Program PWSCF v.5.0.2 (svn rev. 9656) starts on 26Jun2013 at 17:12:47 

     This program is part of the open-source Quantum ESPRESSO suite
     for quantum simulation of materials; please cite
         "P. Giannozzi et al., J. Phys.:Condens. Matter 21 395502 (2009);
          URL http://www.quantum-espresso.org", 
     in publications or presentations arising from this work. More details at
     http://www.quantum-espresso.org/quote.php

     Parallel version (MPI), running on   144 processors
     K-points division:     npool     =      36
     R & G space division:  proc/nbgrp/npool/nimage =       4

     Current dimensions of program PWSCF are:
     Max number of different atomic species (ntypx) = 10
     Max number of k-points (npk) =  40000
     Max angular momentum in pseudopotentials (lmaxx) =  3
     Waiting for input...
     Reading input from standard input

     Atomic positions and unit cell read from directory:
     ./Zn2O2.save/
 

     Subspace diagonalization in iterative solution of the eigenvalue problem:
     a serial algorithm will be used


   Info: using nr1, nr2, nr3 values from input
 
     Parallelization info
     --------------------
     sticks:   dense  smooth     PW     G-vecs:    dense   smooth      PW
     Min        1038    1038    280                86720    86720   12114
     Max        1039    1039    281                86727    86727   12119
     Sum        4153    4153   1123               346889   346889   48467
 


     bravais-lattice index     =            0
     lattice parameter (alat)  =       1.8897  a.u.
     unit-cell volume          =     320.9943 (a.u.)^3
     number of atoms/cell      =            4
     number of atomic types    =            2
     number of electrons       =        52.00
     number of Kohn-Sham states=           52
     kinetic-energy cutoff     =     400.0000  Ry
     charge density cutoff     =    1600.0000  Ry
     Exchange-correlation      = SLA+PW ( 1 4 0 0 0)
     EXX-fraction              =        0.00

     celldm(1)=   1.889726  celldm(2)=   0.000000  celldm(3)=   0.000000
     celldm(4)=   0.000000  celldm(5)=   0.000000  celldm(6)=   0.000000

     crystal axes: (cart. coord. in units of alat)
               a(1) = (   3.250000   0.000000   0.000000 )  
               a(2) = (  -1.625000   2.814583   0.000000 )  
               a(3) = (   0.000000   0.000000   5.200000 )  

     reciprocal axes: (cart. coord. in units 2 pi/alat)
               b(1) = (  0.307692  0.177646  0.000000 )  
               b(2) = (  0.000000  0.355292  0.000000 )  
               b(3) = (  0.000000  0.000000  0.192308 )  


     PseudoPot. # 1 for Zn read from file:
     ../../0_pp/Zn.pw-spn-nc.UPF
     MD5 check sum: 9a837cc8ef69fdaee1504d3748345681
     Pseudo is Norm-conserving + core correction, Zval = 20.0
     Generated using "atomic" code by A. Dal Corso  v.5.0.2 svn rev. 9656
     Using radial grid of 1201 points,  2 beta functions with: 
                l(1) =   0
                l(2) =   1

     PseudoPot. # 2 for  O read from file:
     ../../0_pp/O.pw-n-nc.UPF
     MD5 check sum: 22ead4914353326b5879bd0c3df232e0
     Pseudo is Norm-conserving + core correction, Zval =  6.0
     Generated using "atomic" code by A. Dal Corso  v.5.0.2 svn rev. 9656
     Using radial grid of 1095 points,  1 beta functions with: 
                l(1) =   0

     atomic species   valence    mass     pseudopotential
        Zn            20.00    65.38000     Zn( 1.00)
        O              6.00    15.99900      O( 1.00)

     12 Sym. Ops. (no inversion) found ( 6 have fractional translation)


                                    s                        frac. trans.

      isym =  1     identity                                     

 cryst.   s( 1) = (     1          0          0      )
                  (     0          1          0      )
                  (     0          0          1      )

 cart.    s( 1) = (  1.0000000  0.0000000  0.0000000 )
                  (  0.0000000  1.0000000  0.0000000 )
                  (  0.0000000  0.0000000  1.0000000 )


      isym =  2     180 deg rotation - cart. axis [0,0,1]        

 cryst.   s( 2) = (    -1          0          0      )    f =(  0.0000000 )
                  (     0         -1          0      )       (  0.0000000 )
                  (     0          0          1      )       ( -0.5000000 )

 cart.    s( 2) = ( -1.0000000  0.0000000  0.0000000 )    f =(  0.0000000 )
                  (  0.0000000 -1.0000000  0.0000000 )       (  0.0000000 )
                  (  0.0000000  0.0000000  1.0000000 )       ( -2.6000000 )


      isym =  3      60 deg rotation - cryst. axis [0,0,1]       

 cryst.   s( 3) = (     1          1          0      )    f =(  0.0000000 )
                  (    -1          0          0      )       (  0.0000000 )
                  (     0          0          1      )       ( -0.5000000 )

 cart.    s( 3) = (  0.5000000 -0.8660254  0.0000000 )    f =(  0.0000000 )
                  (  0.8660254  0.5000000  0.0000000 )       (  0.0000000 )
                  (  0.0000000  0.0000000  1.0000000 )       ( -2.6000000 )


      isym =  4      60 deg rotation - cryst. axis [0,0,-1]      

 cryst.   s( 4) = (     0         -1          0      )    f =(  0.0000000 )
                  (     1          1          0      )       (  0.0000000 )
                  (     0          0          1      )       ( -0.5000000 )

 cart.    s( 4) = (  0.5000000  0.8660254  0.0000000 )    f =(  0.0000000 )
                  ( -0.8660254  0.5000000  0.0000000 )       (  0.0000000 )
                  (  0.0000000  0.0000000  1.0000000 )       ( -2.6000000 )


      isym =  5     120 deg rotation - cryst. axis [0,0,1]       

 cryst.   s( 5) = (     0          1          0      )
                  (    -1         -1          0      )
                  (     0          0          1      )

 cart.    s( 5) = ( -0.5000000 -0.8660254  0.0000000 )
                  (  0.8660254 -0.5000000  0.0000000 )
                  (  0.0000000  0.0000000  1.0000000 )


      isym =  6     120 deg rotation - cryst. axis [0,0,-1]      

 cryst.   s( 6) = (    -1         -1          0      )
                  (     1          0          0      )
                  (     0          0          1      )

 cart.    s( 6) = ( -0.5000000  0.8660254  0.0000000 )
                  ( -0.8660254 -0.5000000  0.0000000 )
                  (  0.0000000  0.0000000  1.0000000 )


      isym =  7     inv. 180 deg rotation - cart. axis [0,1,0]   

 cryst.   s( 7) = (     1          0          0      )    f =(  0.0000000 )
                  (    -1         -1          0      )       (  0.0000000 )
                  (     0          0          1      )       ( -0.5000000 )

 cart.    s( 7) = (  1.0000000  0.0000000  0.0000000 )    f =(  0.0000000 )
                  (  0.0000000 -1.0000000  0.0000000 )       (  0.0000000 )
                  (  0.0000000  0.0000000  1.0000000 )       ( -2.6000000 )


      isym =  8     inv. 180 deg rotation - cart. axis [1,0,0]   

 cryst.   s( 8) = (    -1          0          0      )
                  (     1          1          0      )
                  (     0          0          1      )

 cart.    s( 8) = ( -1.0000000  0.0000000  0.0000000 )
                  (  0.0000000  1.0000000  0.0000000 )
                  (  0.0000000  0.0000000  1.0000000 )


      isym =  9     inv. 180 deg rotation - cryst. axis [1,-1,0] 

 cryst.   s( 9) = (     0          1          0      )    f =(  0.0000000 )
                  (     1          0          0      )       (  0.0000000 )
                  (     0          0          1      )       ( -0.5000000 )

 cart.    s( 9) = ( -0.5000000  0.8660254  0.0000000 )    f =(  0.0000000 )
                  (  0.8660254  0.5000000  0.0000000 )       (  0.0000000 )
                  (  0.0000000  0.0000000  1.0000000 )       ( -2.6000000 )


      isym = 10     inv. 180 deg rotation - cryst. axis [2,1,0]  

 cryst.   s(10) = (    -1         -1          0      )    f =(  0.0000000 )
                  (     0          1          0      )       (  0.0000000 )
                  (     0          0          1      )       ( -0.5000000 )

 cart.    s(10) = ( -0.5000000 -0.8660254  0.0000000 )    f =(  0.0000000 )
                  ( -0.8660254  0.5000000  0.0000000 )       (  0.0000000 )
                  (  0.0000000  0.0000000  1.0000000 )       ( -2.6000000 )


      isym = 11     inv. 180 deg rotation - cryst. axis [0,1,0]  

 cryst.   s(11) = (     1          1          0      )
                  (     0         -1          0      )
                  (     0          0          1      )

 cart.    s(11) = (  0.5000000  0.8660254  0.0000000 )
                  (  0.8660254 -0.5000000  0.0000000 )
                  (  0.0000000  0.0000000  1.0000000 )


      isym = 12     inv. 180 deg rotation - cryst. axis [1,1,0]  

 cryst.   s(12) = (     0         -1          0      )
                  (    -1          0          0      )
                  (     0          0          1      )

 cart.    s(12) = (  0.5000000 -0.8660254  0.0000000 )
                  ( -0.8660254 -0.5000000  0.0000000 )
                  (  0.0000000  0.0000000  1.0000000 )


     point group C_6v (6mm) 
     there are  6 classes
     the character table:

       E     2C6   2C3   C2    3s_v  3s_d 
A_1    1.00  1.00  1.00  1.00  1.00  1.00
A_2    1.00  1.00  1.00  1.00 -1.00 -1.00
B_1    1.00 -1.00  1.00 -1.00  1.00 -1.00
B_2    1.00 -1.00  1.00 -1.00 -1.00  1.00
E_1    2.00  1.00 -1.00 -2.00  0.00  0.00
E_2    2.00 -1.00 -1.00  2.00  0.00  0.00

     the symmetry operations in each class:
     E        1
     C2       2
     2C6      3    4
     2C3      5    6
     3s_v     7    9   10
     3s_d     8   12   11

   Cartesian axes

     site n.     atom                  positions (alat units)
         1           Zn  tau(   1) = (   1.6250000   0.9381942   0.0000000  )
         2           Zn  tau(   2) = (   0.0000000   1.8763884   2.6000000  )
         3           O   tau(   3) = (   1.6250000   0.9381942   3.2136000  )
         4           O   tau(   4) = (   0.0000000   1.8763884   0.6136000  )

   Crystallographic axes

     site n.     atom                  positions (cryst. coord.)
         1           Zn  tau(   1) = (  0.6666667  0.3333333  0.0000000  )
         2           Zn  tau(   2) = (  0.3333333  0.6666667  0.5000000  )
         3           O   tau(   3) = (  0.6666667  0.3333333  0.6180000  )
         4           O   tau(   4) = (  0.3333333  0.6666667  0.1180000  )

     number of k points=   435
                       cart. coord. in units 2pi/alat
        k(    1) = (   0.0000000   0.0000000   0.0000000), wk =   0.0045977
        k(    2) = (   0.0030769   0.0017765   0.0000000), wk =   0.0045977
        k(    3) = (   0.0061538   0.0035529   0.0000000), wk =   0.0045977
        k(    4) = (   0.0092308   0.0053294   0.0000000), wk =   0.0045977
        k(    5) = (   0.0123077   0.0071058   0.0000000), wk =   0.0045977
        k(    6) = (   0.0153846   0.0088823   0.0000000), wk =   0.0045977
        k(    7) = (   0.0184615   0.0106588   0.0000000), wk =   0.0045977
        k(    8) = (   0.0215385   0.0124352   0.0000000), wk =   0.0045977
        k(    9) = (   0.0246154   0.0142117   0.0000000), wk =   0.0045977
        k(   10) = (   0.0276923   0.0159882   0.0000000), wk =   0.0045977
        k(   11) = (   0.0307692   0.0177646   0.0000000), wk =   0.0045977
        k(   12) = (   0.0338462   0.0195411   0.0000000), wk =   0.0045977
        k(   13) = (   0.0369231   0.0213175   0.0000000), wk =   0.0045977
        k(   14) = (   0.0400000   0.0230940   0.0000000), wk =   0.0045977
        k(   15) = (   0.0430769   0.0248705   0.0000000), wk =   0.0045977
        k(   16) = (   0.0461538   0.0266469   0.0000000), wk =   0.0045977
        k(   17) = (   0.0492308   0.0284234   0.0000000), wk =   0.0045977
        k(   18) = (   0.0523077   0.0301999   0.0000000), wk =   0.0045977
        k(   19) = (   0.0553846   0.0319763   0.0000000), wk =   0.0045977
        k(   20) = (   0.0584615   0.0337528   0.0000000), wk =   0.0045977
        k(   21) = (   0.0615385   0.0355292   0.0000000), wk =   0.0045977
        k(   22) = (   0.0646154   0.0373057   0.0000000), wk =   0.0045977
        k(   23) = (   0.0676923   0.0390822   0.0000000), wk =   0.0045977
        k(   24) = (   0.0707692   0.0408586   0.0000000), wk =   0.0045977
        k(   25) = (   0.0738462   0.0426351   0.0000000), wk =   0.0045977
        k(   26) = (   0.0769231   0.0444116   0.0000000), wk =   0.0045977
        k(   27) = (   0.0800000   0.0461880   0.0000000), wk =   0.0045977
        k(   28) = (   0.0830769   0.0479645   0.0000000), wk =   0.0045977
        k(   29) = (   0.0861538   0.0497409   0.0000000), wk =   0.0045977
        k(   30) = (   0.0892308   0.0515174   0.0000000), wk =   0.0045977
        k(   31) = (   0.0923077   0.0532939   0.0000000), wk =   0.0045977
        k(   32) = (   0.0953846   0.0550703   0.0000000), wk =   0.0045977
        k(   33) = (   0.0984615   0.0568468   0.0000000), wk =   0.0045977
        k(   34) = (   0.1015385   0.0586233   0.0000000), wk =   0.0045977
        k(   35) = (   0.1046154   0.0603997   0.0000000), wk =   0.0045977
        k(   36) = (   0.1076923   0.0621762   0.0000000), wk =   0.0045977
        k(   37) = (   0.1107692   0.0639526   0.0000000), wk =   0.0045977
        k(   38) = (   0.1138462   0.0657291   0.0000000), wk =   0.0045977
        k(   39) = (   0.1169231   0.0675056   0.0000000), wk =   0.0045977
        k(   40) = (   0.1200000   0.0692820   0.0000000), wk =   0.0045977
        k(   41) = (   0.1230769   0.0710585   0.0000000), wk =   0.0045977
        k(   42) = (   0.1261538   0.0728350   0.0000000), wk =   0.0045977
        k(   43) = (   0.1292308   0.0746114   0.0000000), wk =   0.0045977
        k(   44) = (   0.1323077   0.0763879   0.0000000), wk =   0.0045977
        k(   45) = (   0.1353846   0.0781643   0.0000000), wk =   0.0045977
        k(   46) = (   0.1384615   0.0799408   0.0000000), wk =   0.0045977
        k(   47) = (   0.1415385   0.0817173   0.0000000), wk =   0.0045977
        k(   48) = (   0.1446154   0.0834937   0.0000000), wk =   0.0045977
        k(   49) = (   0.1476923   0.0852702   0.0000000), wk =   0.0045977
        k(   50) = (   0.1507692   0.0870467   0.0000000), wk =   0.0045977
        k(   51) = (   0.1538462   0.0888231   0.0000000), wk =   0.0045977
        k(   52) = (   0.1520778   0.0918860   0.0000000), wk =   0.0045977
        k(   53) = (   0.1503095   0.0949488   0.0000000), wk =   0.0045977
        k(   54) = (   0.1485411   0.0980117   0.0000000), wk =   0.0045977
        k(   55) = (   0.1467728   0.1010746   0.0000000), wk =   0.0045977
        k(   56) = (   0.1450044   0.1041374   0.0000000), wk =   0.0045977
        k(   57) = (   0.1432361   0.1072003   0.0000000), wk =   0.0045977
        k(   58) = (   0.1414677   0.1102631   0.0000000), wk =   0.0045977
        k(   59) = (   0.1396994   0.1133260   0.0000000), wk =   0.0045977
        k(   60) = (   0.1379310   0.1163889   0.0000000), wk =   0.0045977
        k(   61) = (   0.1361627   0.1194517   0.0000000), wk =   0.0045977
        k(   62) = (   0.1343943   0.1225146   0.0000000), wk =   0.0045977
        k(   63) = (   0.1326260   0.1255774   0.0000000), wk =   0.0045977
        k(   64) = (   0.1308576   0.1286403   0.0000000), wk =   0.0045977
        k(   65) = (   0.1290893   0.1317032   0.0000000), wk =   0.0045977
        k(   66) = (   0.1273209   0.1347660   0.0000000), wk =   0.0045977
        k(   67) = (   0.1255526   0.1378289   0.0000000), wk =   0.0045977
        k(   68) = (   0.1237842   0.1408917   0.0000000), wk =   0.0045977
        k(   69) = (   0.1220159   0.1439546   0.0000000), wk =   0.0045977
        k(   70) = (   0.1202475   0.1470175   0.0000000), wk =   0.0045977
        k(   71) = (   0.1184792   0.1500803   0.0000000), wk =   0.0045977
        k(   72) = (   0.1167108   0.1531432   0.0000000), wk =   0.0045977
        k(   73) = (   0.1149425   0.1562060   0.0000000), wk =   0.0045977
        k(   74) = (   0.1131741   0.1592689   0.0000000), wk =   0.0045977
        k(   75) = (   0.1114058   0.1623318   0.0000000), wk =   0.0045977
        k(   76) = (   0.1096374   0.1653946   0.0000000), wk =   0.0045977
        k(   77) = (   0.1078691   0.1684575   0.0000000), wk =   0.0045977
        k(   78) = (   0.1061007   0.1715203   0.0000000), wk =   0.0045977
        k(   79) = (   0.1043324   0.1745832   0.0000000), wk =   0.0045977
        k(   80) = (   0.1025640   0.1776461   0.0000000), wk =   0.0045977
        k(   81) = (   0.1007957   0.1745832   0.0000000), wk =   0.0045977
        k(   82) = (   0.0990273   0.1715203   0.0000000), wk =   0.0045977
        k(   83) = (   0.0972590   0.1684575   0.0000000), wk =   0.0045977
        k(   84) = (   0.0954906   0.1653946   0.0000000), wk =   0.0045977
        k(   85) = (   0.0937223   0.1623317   0.0000000), wk =   0.0045977
        k(   86) = (   0.0919539   0.1592689   0.0000000), wk =   0.0045977
        k(   87) = (   0.0901856   0.1562060   0.0000000), wk =   0.0045977
        k(   88) = (   0.0884172   0.1531432   0.0000000), wk =   0.0045977
        k(   89) = (   0.0866489   0.1500803   0.0000000), wk =   0.0045977
        k(   90) = (   0.0848806   0.1470174   0.0000000), wk =   0.0045977
        k(   91) = (   0.0831122   0.1439546   0.0000000), wk =   0.0045977
        k(   92) = (   0.0813439   0.1408917   0.0000000), wk =   0.0045977
        k(   93) = (   0.0795755   0.1378288   0.0000000), wk =   0.0045977
        k(   94) = (   0.0778072   0.1347660   0.0000000), wk =   0.0045977
        k(   95) = (   0.0760388   0.1317031   0.0000000), wk =   0.0045977
        k(   96) = (   0.0742705   0.1286402   0.0000000), wk =   0.0045977
        k(   97) = (   0.0725021   0.1255774   0.0000000), wk =   0.0045977
        k(   98) = (   0.0707338   0.1225145   0.0000000), wk =   0.0045977
        k(   99) = (   0.0689654   0.1194517   0.0000000), wk =   0.0045977
        k(  100) = (   0.0671971   0.1163888   0.0000000), wk =   0.0045977
        k(  101) = (   0.0654288   0.1133259   0.0000000), wk =   0.0045977
        k(  102) = (   0.0636604   0.1102631   0.0000000), wk =   0.0045977
        k(  103) = (   0.0618921   0.1072002   0.0000000), wk =   0.0045977
        k(  104) = (   0.0601237   0.1041373   0.0000000), wk =   0.0045977
        k(  105) = (   0.0583554   0.1010745   0.0000000), wk =   0.0045977
        k(  106) = (   0.0565870   0.0980116   0.0000000), wk =   0.0045977
        k(  107) = (   0.0548187   0.0949488   0.0000000), wk =   0.0045977
        k(  108) = (   0.0530503   0.0918859   0.0000000), wk =   0.0045977
        k(  109) = (   0.0512820   0.0888230   0.0000000), wk =   0.0045977
        k(  110) = (   0.0495137   0.0857602   0.0000000), wk =   0.0045977
        k(  111) = (   0.0477453   0.0826973   0.0000000), wk =   0.0045977
        k(  112) = (   0.0459770   0.0796344   0.0000000), wk =   0.0045977
        k(  113) = (   0.0442086   0.0765716   0.0000000), wk =   0.0045977
        k(  114) = (   0.0424403   0.0735087   0.0000000), wk =   0.0045977
        k(  115) = (   0.0406719   0.0704459   0.0000000), wk =   0.0045977
        k(  116) = (   0.0389036   0.0673830   0.0000000), wk =   0.0045977
        k(  117) = (   0.0371352   0.0643201   0.0000000), wk =   0.0045977
        k(  118) = (   0.0353669   0.0612573   0.0000000), wk =   0.0045977
        k(  119) = (   0.0335986   0.0581944   0.0000000), wk =   0.0045977
        k(  120) = (   0.0318302   0.0551315   0.0000000), wk =   0.0045977
        k(  121) = (   0.0300619   0.0520687   0.0000000), wk =   0.0045977
        k(  122) = (   0.0282935   0.0490058   0.0000000), wk =   0.0045977
        k(  123) = (   0.0265252   0.0459429   0.0000000), wk =   0.0045977
        k(  124) = (   0.0247568   0.0428801   0.0000000), wk =   0.0045977
        k(  125) = (   0.0229885   0.0398172   0.0000000), wk =   0.0045977
        k(  126) = (   0.0212201   0.0367544   0.0000000), wk =   0.0045977
        k(  127) = (   0.0194518   0.0336915   0.0000000), wk =   0.0045977
        k(  128) = (   0.0176834   0.0306286   0.0000000), wk =   0.0045977
        k(  129) = (   0.0159151   0.0275658   0.0000000), wk =   0.0045977
        k(  130) = (   0.0141468   0.0245029   0.0000000), wk =   0.0045977
        k(  131) = (   0.0123784   0.0214400   0.0000000), wk =   0.0045977
        k(  132) = (   0.0106101   0.0183772   0.0000000), wk =   0.0045977
        k(  133) = (   0.0088417   0.0153143   0.0000000), wk =   0.0045977
        k(  134) = (   0.0070734   0.0122515   0.0000000), wk =   0.0045977
        k(  135) = (   0.0053050   0.0091886   0.0000000), wk =   0.0045977
        k(  136) = (   0.0035367   0.0061257   0.0000000), wk =   0.0045977
        k(  137) = (   0.0017683   0.0030629   0.0000000), wk =   0.0045977
        k(  138) = (   0.0000000   0.0000000   0.0000000), wk =   0.0045977
        k(  139) = (   0.0000000   0.0000000   0.0035613), wk =   0.0045977
        k(  140) = (   0.0000000   0.0000000   0.0071225), wk =   0.0045977
        k(  141) = (   0.0000000   0.0000000   0.0106838), wk =   0.0045977
        k(  142) = (   0.0000000   0.0000000   0.0142450), wk =   0.0045977
        k(  143) = (   0.0000000   0.0000000   0.0178063), wk =   0.0045977
        k(  144) = (   0.0000000   0.0000000   0.0213675), wk =   0.0045977
        k(  145) = (   0.0000000   0.0000000   0.0249288), wk =   0.0045977
        k(  146) = (   0.0000000   0.0000000   0.0284900), wk =   0.0045977
        k(  147) = (   0.0000000   0.0000000   0.0320513), wk =   0.0045977
        k(  148) = (   0.0000000   0.0000000   0.0356125), wk =   0.0045977
        k(  149) = (   0.0000000   0.0000000   0.0391738), wk =   0.0045977
        k(  150) = (   0.0000000   0.0000000   0.0427350), wk =   0.0045977
        k(  151) = (   0.0000000   0.0000000   0.0462963), wk =   0.0045977
        k(  152) = (   0.0000000   0.0000000   0.0498575), wk =   0.0045977
        k(  153) = (   0.0000000   0.0000000   0.0534188), wk =   0.0045977
        k(  154) = (   0.0000000   0.0000000   0.0569801), wk =   0.0045977
        k(  155) = (   0.0000000   0.0000000   0.0605413), wk =   0.0045977
        k(  156) = (   0.0000000   0.0000000   0.0641026), wk =   0.0045977
        k(  157) = (   0.0000000   0.0000000   0.0676638), wk =   0.0045977
        k(  158) = (   0.0000000   0.0000000   0.0712251), wk =   0.0045977
        k(  159) = (   0.0000000   0.0000000   0.0747863), wk =   0.0045977
        k(  160) = (   0.0000000   0.0000000   0.0783476), wk =   0.0045977
        k(  161) = (   0.0000000   0.0000000   0.0819088), wk =   0.0045977
        k(  162) = (   0.0000000   0.0000000   0.0854701), wk =   0.0045977
        k(  163) = (   0.0000000   0.0000000   0.0890313), wk =   0.0045977
        k(  164) = (   0.0000000   0.0000000   0.0925926), wk =   0.0045977
        k(  165) = (   0.0000000   0.0000000   0.0961538), wk =   0.0045977
        k(  166) = (   0.0030769   0.0017765   0.0961538), wk =   0.0045977
        k(  167) = (   0.0061538   0.0035529   0.0961538), wk =   0.0045977
        k(  168) = (   0.0092308   0.0053294   0.0961538), wk =   0.0045977
        k(  169) = (   0.0123077   0.0071058   0.0961538), wk =   0.0045977
        k(  170) = (   0.0153846   0.0088823   0.0961538), wk =   0.0045977
        k(  171) = (   0.0184615   0.0106588   0.0961538), wk =   0.0045977
        k(  172) = (   0.0215385   0.0124352   0.0961538), wk =   0.0045977
        k(  173) = (   0.0246154   0.0142117   0.0961538), wk =   0.0045977
        k(  174) = (   0.0276923   0.0159882   0.0961538), wk =   0.0045977
        k(  175) = (   0.0307692   0.0177646   0.0961538), wk =   0.0045977
        k(  176) = (   0.0338462   0.0195411   0.0961538), wk =   0.0045977
        k(  177) = (   0.0369231   0.0213175   0.0961538), wk =   0.0045977
        k(  178) = (   0.0400000   0.0230940   0.0961538), wk =   0.0045977
        k(  179) = (   0.0430769   0.0248705   0.0961538), wk =   0.0045977
        k(  180) = (   0.0461538   0.0266469   0.0961538), wk =   0.0045977
        k(  181) = (   0.0492308   0.0284234   0.0961538), wk =   0.0045977
        k(  182) = (   0.0523077   0.0301999   0.0961538), wk =   0.0045977
        k(  183) = (   0.0553846   0.0319763   0.0961538), wk =   0.0045977
        k(  184) = (   0.0584615   0.0337528   0.0961538), wk =   0.0045977
        k(  185) = (   0.0615385   0.0355292   0.0961538), wk =   0.0045977
        k(  186) = (   0.0646154   0.0373057   0.0961538), wk =   0.0045977
        k(  187) = (   0.0676923   0.0390822   0.0961538), wk =   0.0045977
        k(  188) = (   0.0707692   0.0408586   0.0961538), wk =   0.0045977
        k(  189) = (   0.0738462   0.0426351   0.0961538), wk =   0.0045977
        k(  190) = (   0.0769231   0.0444116   0.0961538), wk =   0.0045977
        k(  191) = (   0.0800000   0.0461880   0.0961538), wk =   0.0045977
        k(  192) = (   0.0830769   0.0479645   0.0961538), wk =   0.0045977
        k(  193) = (   0.0861538   0.0497409   0.0961538), wk =   0.0045977
        k(  194) = (   0.0892308   0.0515174   0.0961538), wk =   0.0045977
        k(  195) = (   0.0923077   0.0532939   0.0961538), wk =   0.0045977
        k(  196) = (   0.0953846   0.0550703   0.0961538), wk =   0.0045977
        k(  197) = (   0.0984615   0.0568468   0.0961538), wk =   0.0045977
        k(  198) = (   0.1015385   0.0586233   0.0961538), wk =   0.0045977
        k(  199) = (   0.1046154   0.0603997   0.0961538), wk =   0.0045977
        k(  200) = (   0.1076923   0.0621762   0.0961538), wk =   0.0045977
        k(  201) = (   0.1107692   0.0639526   0.0961538), wk =   0.0045977
        k(  202) = (   0.1138462   0.0657291   0.0961538), wk =   0.0045977
        k(  203) = (   0.1169231   0.0675056   0.0961538), wk =   0.0045977
        k(  204) = (   0.1200000   0.0692820   0.0961538), wk =   0.0045977
        k(  205) = (   0.1230769   0.0710585   0.0961538), wk =   0.0045977
        k(  206) = (   0.1261538   0.0728350   0.0961538), wk =   0.0045977
        k(  207) = (   0.1292308   0.0746114   0.0961538), wk =   0.0045977
        k(  208) = (   0.1323077   0.0763879   0.0961538), wk =   0.0045977
        k(  209) = (   0.1353846   0.0781643   0.0961538), wk =   0.0045977
        k(  210) = (   0.1384615   0.0799408   0.0961538), wk =   0.0045977
        k(  211) = (   0.1415385   0.0817173   0.0961538), wk =   0.0045977
        k(  212) = (   0.1446154   0.0834937   0.0961538), wk =   0.0045977
        k(  213) = (   0.1476923   0.0852702   0.0961538), wk =   0.0045977
        k(  214) = (   0.1507692   0.0870467   0.0961538), wk =   0.0045977
        k(  215) = (   0.1538462   0.0888231   0.0961538), wk =   0.0045977
        k(  216) = (   0.1520778   0.0918860   0.0961538), wk =   0.0045977
        k(  217) = (   0.1503095   0.0949488   0.0961538), wk =   0.0045977
        k(  218) = (   0.1485411   0.0980117   0.0961538), wk =   0.0045977
        k(  219) = (   0.1467728   0.1010746   0.0961538), wk =   0.0045977
        k(  220) = (   0.1450044   0.1041374   0.0961538), wk =   0.0045977
        k(  221) = (   0.1432361   0.1072003   0.0961538), wk =   0.0045977
        k(  222) = (   0.1414677   0.1102631   0.0961538), wk =   0.0045977
        k(  223) = (   0.1396994   0.1133260   0.0961538), wk =   0.0045977
        k(  224) = (   0.1379310   0.1163889   0.0961538), wk =   0.0045977
        k(  225) = (   0.1361627   0.1194517   0.0961538), wk =   0.0045977
        k(  226) = (   0.1343943   0.1225146   0.0961538), wk =   0.0045977
        k(  227) = (   0.1326260   0.1255774   0.0961538), wk =   0.0045977
        k(  228) = (   0.1308576   0.1286403   0.0961538), wk =   0.0045977
        k(  229) = (   0.1290893   0.1317032   0.0961538), wk =   0.0045977
        k(  230) = (   0.1273209   0.1347660   0.0961538), wk =   0.0045977
        k(  231) = (   0.1255526   0.1378289   0.0961538), wk =   0.0045977
        k(  232) = (   0.1237842   0.1408917   0.0961538), wk =   0.0045977
        k(  233) = (   0.1220159   0.1439546   0.0961538), wk =   0.0045977
        k(  234) = (   0.1202475   0.1470175   0.0961538), wk =   0.0045977
        k(  235) = (   0.1184792   0.1500803   0.0961538), wk =   0.0045977
        k(  236) = (   0.1167108   0.1531432   0.0961538), wk =   0.0045977
        k(  237) = (   0.1149425   0.1562060   0.0961538), wk =   0.0045977
        k(  238) = (   0.1131741   0.1592689   0.0961538), wk =   0.0045977
        k(  239) = (   0.1114058   0.1623318   0.0961538), wk =   0.0045977
        k(  240) = (   0.1096374   0.1653946   0.0961538), wk =   0.0045977
        k(  241) = (   0.1078691   0.1684575   0.0961538), wk =   0.0045977
        k(  242) = (   0.1061007   0.1715203   0.0961538), wk =   0.0045977
        k(  243) = (   0.1043324   0.1745832   0.0961538), wk =   0.0045977
        k(  244) = (   0.1025640   0.1776461   0.0961538), wk =   0.0045977
        k(  245) = (   0.1007957   0.1745832   0.0961538), wk =   0.0045977
        k(  246) = (   0.0990273   0.1715203   0.0961538), wk =   0.0045977
        k(  247) = (   0.0972590   0.1684575   0.0961538), wk =   0.0045977
        k(  248) = (   0.0954906   0.1653946   0.0961538), wk =   0.0045977
        k(  249) = (   0.0937223   0.1623317   0.0961538), wk =   0.0045977
        k(  250) = (   0.0919539   0.1592689   0.0961538), wk =   0.0045977
        k(  251) = (   0.0901856   0.1562060   0.0961538), wk =   0.0045977
        k(  252) = (   0.0884172   0.1531432   0.0961538), wk =   0.0045977
        k(  253) = (   0.0866489   0.1500803   0.0961538), wk =   0.0045977
        k(  254) = (   0.0848806   0.1470174   0.0961538), wk =   0.0045977
        k(  255) = (   0.0831122   0.1439546   0.0961538), wk =   0.0045977
        k(  256) = (   0.0813439   0.1408917   0.0961538), wk =   0.0045977
        k(  257) = (   0.0795755   0.1378288   0.0961538), wk =   0.0045977
        k(  258) = (   0.0778072   0.1347660   0.0961538), wk =   0.0045977
        k(  259) = (   0.0760388   0.1317031   0.0961538), wk =   0.0045977
        k(  260) = (   0.0742705   0.1286402   0.0961538), wk =   0.0045977
        k(  261) = (   0.0725021   0.1255774   0.0961538), wk =   0.0045977
        k(  262) = (   0.0707338   0.1225145   0.0961538), wk =   0.0045977
        k(  263) = (   0.0689654   0.1194517   0.0961538), wk =   0.0045977
        k(  264) = (   0.0671971   0.1163888   0.0961538), wk =   0.0045977
        k(  265) = (   0.0654288   0.1133259   0.0961538), wk =   0.0045977
        k(  266) = (   0.0636604   0.1102631   0.0961538), wk =   0.0045977
        k(  267) = (   0.0618921   0.1072002   0.0961538), wk =   0.0045977
        k(  268) = (   0.0601237   0.1041373   0.0961538), wk =   0.0045977
        k(  269) = (   0.0583554   0.1010745   0.0961538), wk =   0.0045977
        k(  270) = (   0.0565870   0.0980116   0.0961538), wk =   0.0045977
        k(  271) = (   0.0548187   0.0949488   0.0961538), wk =   0.0045977
        k(  272) = (   0.0530503   0.0918859   0.0961538), wk =   0.0045977
        k(  273) = (   0.0512820   0.0888230   0.0961538), wk =   0.0045977
        k(  274) = (   0.0495137   0.0857602   0.0961538), wk =   0.0045977
        k(  275) = (   0.0477453   0.0826973   0.0961538), wk =   0.0045977
        k(  276) = (   0.0459770   0.0796344   0.0961538), wk =   0.0045977
        k(  277) = (   0.0442086   0.0765716   0.0961538), wk =   0.0045977
        k(  278) = (   0.0424403   0.0735087   0.0961538), wk =   0.0045977
        k(  279) = (   0.0406719   0.0704459   0.0961538), wk =   0.0045977
        k(  280) = (   0.0389036   0.0673830   0.0961538), wk =   0.0045977
        k(  281) = (   0.0371352   0.0643201   0.0961538), wk =   0.0045977
        k(  282) = (   0.0353669   0.0612573   0.0961538), wk =   0.0045977
        k(  283) = (   0.0335986   0.0581944   0.0961538), wk =   0.0045977
        k(  284) = (   0.0318302   0.0551315   0.0961538), wk =   0.0045977
        k(  285) = (   0.0300619   0.0520687   0.0961538), wk =   0.0045977
        k(  286) = (   0.0282935   0.0490058   0.0961538), wk =   0.0045977
        k(  287) = (   0.0265252   0.0459429   0.0961538), wk =   0.0045977
        k(  288) = (   0.0247568   0.0428801   0.0961538), wk =   0.0045977
        k(  289) = (   0.0229885   0.0398172   0.0961538), wk =   0.0045977
        k(  290) = (   0.0212201   0.0367544   0.0961538), wk =   0.0045977
        k(  291) = (   0.0194518   0.0336915   0.0961538), wk =   0.0045977
        k(  292) = (   0.0176834   0.0306286   0.0961538), wk =   0.0045977
        k(  293) = (   0.0159151   0.0275658   0.0961538), wk =   0.0045977
        k(  294) = (   0.0141468   0.0245029   0.0961538), wk =   0.0045977
        k(  295) = (   0.0123784   0.0214400   0.0961538), wk =   0.0045977
        k(  296) = (   0.0106101   0.0183772   0.0961538), wk =   0.0045977
        k(  297) = (   0.0088417   0.0153143   0.0961538), wk =   0.0045977
        k(  298) = (   0.0070734   0.0122515   0.0961538), wk =   0.0045977
        k(  299) = (   0.0053050   0.0091886   0.0961538), wk =   0.0045977
        k(  300) = (   0.0035367   0.0061257   0.0961538), wk =   0.0045977
        k(  301) = (   0.0017683   0.0030629   0.0961538), wk =   0.0045977
        k(  302) = (   0.0000000   0.0000000   0.0961538), wk =   0.0045977
        k(  303) = (   0.0030769   0.0017765   0.0961538), wk =   0.0045977
        k(  304) = (   0.0061538   0.0035529   0.0961538), wk =   0.0045977
        k(  305) = (   0.0092308   0.0053294   0.0961538), wk =   0.0045977
        k(  306) = (   0.0123077   0.0071058   0.0961538), wk =   0.0045977
        k(  307) = (   0.0153846   0.0088823   0.0961538), wk =   0.0045977
        k(  308) = (   0.0184615   0.0106588   0.0961538), wk =   0.0045977
        k(  309) = (   0.0215385   0.0124352   0.0961538), wk =   0.0045977
        k(  310) = (   0.0246154   0.0142117   0.0961538), wk =   0.0045977
        k(  311) = (   0.0276923   0.0159882   0.0961538), wk =   0.0045977
        k(  312) = (   0.0307692   0.0177646   0.0961538), wk =   0.0045977
        k(  313) = (   0.0338462   0.0195411   0.0961538), wk =   0.0045977
        k(  314) = (   0.0369231   0.0213175   0.0961538), wk =   0.0045977
        k(  315) = (   0.0400000   0.0230940   0.0961538), wk =   0.0045977
        k(  316) = (   0.0430769   0.0248705   0.0961538), wk =   0.0045977
        k(  317) = (   0.0461538   0.0266469   0.0961538), wk =   0.0045977
        k(  318) = (   0.0492308   0.0284234   0.0961538), wk =   0.0045977
        k(  319) = (   0.0523077   0.0301999   0.0961538), wk =   0.0045977
        k(  320) = (   0.0553846   0.0319763   0.0961538), wk =   0.0045977
        k(  321) = (   0.0584615   0.0337528   0.0961538), wk =   0.0045977
        k(  322) = (   0.0615385   0.0355292   0.0961538), wk =   0.0045977
        k(  323) = (   0.0646154   0.0373057   0.0961538), wk =   0.0045977
        k(  324) = (   0.0676923   0.0390822   0.0961538), wk =   0.0045977
        k(  325) = (   0.0707692   0.0408586   0.0961538), wk =   0.0045977
        k(  326) = (   0.0738462   0.0426351   0.0961538), wk =   0.0045977
        k(  327) = (   0.0769231   0.0444116   0.0961538), wk =   0.0045977
        k(  328) = (   0.0800000   0.0461880   0.0961538), wk =   0.0045977
        k(  329) = (   0.0830769   0.0479645   0.0961538), wk =   0.0045977
        k(  330) = (   0.0861538   0.0497409   0.0961538), wk =   0.0045977
        k(  331) = (   0.0892308   0.0515174   0.0961538), wk =   0.0045977
        k(  332) = (   0.0923077   0.0532939   0.0961538), wk =   0.0045977
        k(  333) = (   0.0953846   0.0550703   0.0961538), wk =   0.0045977
        k(  334) = (   0.0984615   0.0568468   0.0961538), wk =   0.0045977
        k(  335) = (   0.1015385   0.0586233   0.0961538), wk =   0.0045977
        k(  336) = (   0.1046154   0.0603997   0.0961538), wk =   0.0045977
        k(  337) = (   0.1076923   0.0621762   0.0961538), wk =   0.0045977
        k(  338) = (   0.1107692   0.0639526   0.0961538), wk =   0.0045977
        k(  339) = (   0.1138462   0.0657291   0.0961538), wk =   0.0045977
        k(  340) = (   0.1169231   0.0675056   0.0961538), wk =   0.0045977
        k(  341) = (   0.1200000   0.0692820   0.0961538), wk =   0.0045977
        k(  342) = (   0.1230769   0.0710585   0.0961538), wk =   0.0045977
        k(  343) = (   0.1261538   0.0728350   0.0961538), wk =   0.0045977
        k(  344) = (   0.1292308   0.0746114   0.0961538), wk =   0.0045977
        k(  345) = (   0.1323077   0.0763879   0.0961538), wk =   0.0045977
        k(  346) = (   0.1353846   0.0781643   0.0961538), wk =   0.0045977
        k(  347) = (   0.1384615   0.0799408   0.0961538), wk =   0.0045977
        k(  348) = (   0.1415385   0.0817173   0.0961538), wk =   0.0045977
        k(  349) = (   0.1446154   0.0834937   0.0961538), wk =   0.0045977
        k(  350) = (   0.1476923   0.0852702   0.0961538), wk =   0.0045977
        k(  351) = (   0.1507692   0.0870467   0.0961538), wk =   0.0045977
        k(  352) = (   0.1538462   0.0888231   0.0961538), wk =   0.0045977
        k(  353) = (   0.1538462   0.0888231   0.0925926), wk =   0.0045977
        k(  354) = (   0.1538462   0.0888231   0.0890313), wk =   0.0045977
        k(  355) = (   0.1538462   0.0888231   0.0854701), wk =   0.0045977
        k(  356) = (   0.1538462   0.0888231   0.0819088), wk =   0.0045977
        k(  357) = (   0.1538462   0.0888231   0.0783476), wk =   0.0045977
        k(  358) = (   0.1538462   0.0888231   0.0747863), wk =   0.0045977
        k(  359) = (   0.1538462   0.0888231   0.0712251), wk =   0.0045977
        k(  360) = (   0.1538462   0.0888231   0.0676638), wk =   0.0045977
        k(  361) = (   0.1538462   0.0888231   0.0641026), wk =   0.0045977
        k(  362) = (   0.1538462   0.0888231   0.0605413), wk =   0.0045977
        k(  363) = (   0.1538462   0.0888231   0.0569801), wk =   0.0045977
        k(  364) = (   0.1538462   0.0888231   0.0534188), wk =   0.0045977
        k(  365) = (   0.1538462   0.0888231   0.0498575), wk =   0.0045977
        k(  366) = (   0.1538462   0.0888231   0.0462963), wk =   0.0045977
        k(  367) = (   0.1538462   0.0888231   0.0427350), wk =   0.0045977
        k(  368) = (   0.1538462   0.0888231   0.0391738), wk =   0.0045977
        k(  369) = (   0.1538462   0.0888231   0.0356125), wk =   0.0045977
        k(  370) = (   0.1538462   0.0888231   0.0320513), wk =   0.0045977
        k(  371) = (   0.1538462   0.0888231   0.0284900), wk =   0.0045977
        k(  372) = (   0.1538462   0.0888231   0.0249288), wk =   0.0045977
        k(  373) = (   0.1538462   0.0888231   0.0213675), wk =   0.0045977
        k(  374) = (   0.1538462   0.0888231   0.0178063), wk =   0.0045977
        k(  375) = (   0.1538462   0.0888231   0.0142450), wk =   0.0045977
        k(  376) = (   0.1538462   0.0888231   0.0106838), wk =   0.0045977
        k(  377) = (   0.1538462   0.0888231   0.0071225), wk =   0.0045977
        k(  378) = (   0.1538462   0.0888231   0.0035613), wk =   0.0045977
        k(  379) = (   0.1538462   0.0888231   0.0000000), wk =   0.0045977
        k(  380) = (   0.1520778   0.0918860   0.0000000), wk =   0.0045977
        k(  381) = (   0.1503095   0.0949488   0.0000000), wk =   0.0045977
        k(  382) = (   0.1485411   0.0980117   0.0000000), wk =   0.0045977
        k(  383) = (   0.1467728   0.1010746   0.0000000), wk =   0.0045977
        k(  384) = (   0.1450044   0.1041374   0.0000000), wk =   0.0045977
        k(  385) = (   0.1432361   0.1072003   0.0000000), wk =   0.0045977
        k(  386) = (   0.1414677   0.1102631   0.0000000), wk =   0.0045977
        k(  387) = (   0.1396994   0.1133260   0.0000000), wk =   0.0045977
        k(  388) = (   0.1379310   0.1163889   0.0000000), wk =   0.0045977
        k(  389) = (   0.1361627   0.1194517   0.0000000), wk =   0.0045977
        k(  390) = (   0.1343943   0.1225146   0.0000000), wk =   0.0045977
        k(  391) = (   0.1326260   0.1255774   0.0000000), wk =   0.0045977
        k(  392) = (   0.1308576   0.1286403   0.0000000), wk =   0.0045977
        k(  393) = (   0.1290893   0.1317032   0.0000000), wk =   0.0045977
        k(  394) = (   0.1273209   0.1347660   0.0000000), wk =   0.0045977
        k(  395) = (   0.1255526   0.1378289   0.0000000), wk =   0.0045977
        k(  396) = (   0.1237842   0.1408917   0.0000000), wk =   0.0045977
        k(  397) = (   0.1220159   0.1439546   0.0000000), wk =   0.0045977
        k(  398) = (   0.1202475   0.1470175   0.0000000), wk =   0.0045977
        k(  399) = (   0.1184792   0.1500803   0.0000000), wk =   0.0045977
        k(  400) = (   0.1167108   0.1531432   0.0000000), wk =   0.0045977
        k(  401) = (   0.1149425   0.1562060   0.0000000), wk =   0.0045977
        k(  402) = (   0.1131741   0.1592689   0.0000000), wk =   0.0045977
        k(  403) = (   0.1114058   0.1623318   0.0000000), wk =   0.0045977
        k(  404) = (   0.1096374   0.1653946   0.0000000), wk =   0.0045977
        k(  405) = (   0.1078691   0.1684575   0.0000000), wk =   0.0045977
        k(  406) = (   0.1061007   0.1715203   0.0000000), wk =   0.0045977
        k(  407) = (   0.1043324   0.1745832   0.0000000), wk =   0.0045977
        k(  408) = (   0.1025640   0.1776461   0.0000000), wk =   0.0045977
        k(  409) = (   0.1025640   0.1776461   0.0035613), wk =   0.0045977
        k(  410) = (   0.1025640   0.1776461   0.0071225), wk =   0.0045977
        k(  411) = (   0.1025640   0.1776461   0.0106838), wk =   0.0045977
        k(  412) = (   0.1025640   0.1776461   0.0142450), wk =   0.0045977
        k(  413) = (   0.1025640   0.1776461   0.0178063), wk =   0.0045977
        k(  414) = (   0.1025640   0.1776461   0.0213675), wk =   0.0045977
        k(  415) = (   0.1025640   0.1776461   0.0249288), wk =   0.0045977
        k(  416) = (   0.1025640   0.1776461   0.0284900), wk =   0.0045977
        k(  417) = (   0.1025640   0.1776461   0.0320513), wk =   0.0045977
        k(  418) = (   0.1025640   0.1776461   0.0356125), wk =   0.0045977
        k(  419) = (   0.1025640   0.1776461   0.0391738), wk =   0.0045977
        k(  420) = (   0.1025640   0.1776461   0.0427350), wk =   0.0045977
        k(  421) = (   0.1025640   0.1776461   0.0462963), wk =   0.0045977
        k(  422) = (   0.1025640   0.1776461   0.0498575), wk =   0.0045977
        k(  423) = (   0.1025640   0.1776461   0.0534188), wk =   0.0045977
        k(  424) = (   0.1025640   0.1776461   0.0569801), wk =   0.0045977
        k(  425) = (   0.1025640   0.1776461   0.0605413), wk =   0.0045977
        k(  426) = (   0.1025640   0.1776461   0.0641026), wk =   0.0045977
        k(  427) = (   0.1025640   0.1776461   0.0676638), wk =   0.0045977
        k(  428) = (   0.1025640   0.1776461   0.0712251), wk =   0.0045977
        k(  429) = (   0.1025640   0.1776461   0.0747863), wk =   0.0045977
        k(  430) = (   0.1025640   0.1776461   0.0783476), wk =   0.0045977
        k(  431) = (   0.1025640   0.1776461   0.0819088), wk =   0.0045977
        k(  432) = (   0.1025640   0.1776461   0.0854701), wk =   0.0045977
        k(  433) = (   0.1025640   0.1776461   0.0890313), wk =   0.0045977
        k(  434) = (   0.1025640   0.1776461   0.0925926), wk =   0.0045977
        k(  435) = (   0.1025640   0.1776461   0.0961538), wk =   0.0045977

                       cryst. coord.
        k(    1) = (   0.0000000   0.0000000   0.0000000), wk =   0.0045977
        k(    2) = (   0.0100000   0.0000000   0.0000000), wk =   0.0045977
        k(    3) = (   0.0200000   0.0000000   0.0000000), wk =   0.0045977
        k(    4) = (   0.0300000   0.0000000   0.0000000), wk =   0.0045977
        k(    5) = (   0.0400000   0.0000000   0.0000000), wk =   0.0045977
        k(    6) = (   0.0500000   0.0000000   0.0000000), wk =   0.0045977
        k(    7) = (   0.0600000   0.0000000   0.0000000), wk =   0.0045977
        k(    8) = (   0.0700000   0.0000000   0.0000000), wk =   0.0045977
        k(    9) = (   0.0800000   0.0000000   0.0000000), wk =   0.0045977
        k(   10) = (   0.0900000   0.0000000   0.0000000), wk =   0.0045977
        k(   11) = (   0.1000000   0.0000000   0.0000000), wk =   0.0045977
        k(   12) = (   0.1100000   0.0000000   0.0000000), wk =   0.0045977
        k(   13) = (   0.1200000   0.0000000   0.0000000), wk =   0.0045977
        k(   14) = (   0.1300000   0.0000000   0.0000000), wk =   0.0045977
        k(   15) = (   0.1400000   0.0000000   0.0000000), wk =   0.0045977
        k(   16) = (   0.1500000   0.0000000   0.0000000), wk =   0.0045977
        k(   17) = (   0.1600000   0.0000000   0.0000000), wk =   0.0045977
        k(   18) = (   0.1700000   0.0000000   0.0000000), wk =   0.0045977
        k(   19) = (   0.1800000   0.0000000   0.0000000), wk =   0.0045977
        k(   20) = (   0.1900000   0.0000000   0.0000000), wk =   0.0045977
        k(   21) = (   0.2000000   0.0000000   0.0000000), wk =   0.0045977
        k(   22) = (   0.2100000   0.0000000   0.0000000), wk =   0.0045977
        k(   23) = (   0.2200000   0.0000000   0.0000000), wk =   0.0045977
        k(   24) = (   0.2300000   0.0000000   0.0000000), wk =   0.0045977
        k(   25) = (   0.2400000   0.0000000   0.0000000), wk =   0.0045977
        k(   26) = (   0.2500000   0.0000000   0.0000000), wk =   0.0045977
        k(   27) = (   0.2600000   0.0000000   0.0000000), wk =   0.0045977
        k(   28) = (   0.2700000   0.0000000   0.0000000), wk =   0.0045977
        k(   29) = (   0.2800000   0.0000000   0.0000000), wk =   0.0045977
        k(   30) = (   0.2900000   0.0000000   0.0000000), wk =   0.0045977
        k(   31) = (   0.3000000   0.0000000   0.0000000), wk =   0.0045977
        k(   32) = (   0.3100000   0.0000000   0.0000000), wk =   0.0045977
        k(   33) = (   0.3200000   0.0000000   0.0000000), wk =   0.0045977
        k(   34) = (   0.3300000   0.0000000   0.0000000), wk =   0.0045977
        k(   35) = (   0.3400000   0.0000000   0.0000000), wk =   0.0045977
        k(   36) = (   0.3500000   0.0000000   0.0000000), wk =   0.0045977
        k(   37) = (   0.3600000   0.0000000   0.0000000), wk =   0.0045977
        k(   38) = (   0.3700000   0.0000000   0.0000000), wk =   0.0045977
        k(   39) = (   0.3800000   0.0000000   0.0000000), wk =   0.0045977
        k(   40) = (   0.3900000   0.0000000   0.0000000), wk =   0.0045977
        k(   41) = (   0.4000000   0.0000000   0.0000000), wk =   0.0045977
        k(   42) = (   0.4100000   0.0000000   0.0000000), wk =   0.0045977
        k(   43) = (   0.4200000   0.0000000   0.0000000), wk =   0.0045977
        k(   44) = (   0.4300000   0.0000000   0.0000000), wk =   0.0045977
        k(   45) = (   0.4400000   0.0000000   0.0000000), wk =   0.0045977
        k(   46) = (   0.4500000   0.0000000   0.0000000), wk =   0.0045977
        k(   47) = (   0.4600000   0.0000000   0.0000000), wk =   0.0045977
        k(   48) = (   0.4700000   0.0000000   0.0000000), wk =   0.0045977
        k(   49) = (   0.4800000   0.0000000   0.0000000), wk =   0.0045977
        k(   50) = (   0.4900000   0.0000000   0.0000000), wk =   0.0045977
        k(   51) = (   0.5000000   0.0000000   0.0000000), wk =   0.0045977
        k(   52) = (   0.4942529   0.0114942   0.0000000), wk =   0.0045977
        k(   53) = (   0.4885057   0.0229885   0.0000000), wk =   0.0045977
        k(   54) = (   0.4827586   0.0344827   0.0000000), wk =   0.0045977
        k(   55) = (   0.4770114   0.0459770   0.0000000), wk =   0.0045977
        k(   56) = (   0.4712643   0.0574712   0.0000000), wk =   0.0045977
        k(   57) = (   0.4655172   0.0689654   0.0000000), wk =   0.0045977
        k(   58) = (   0.4597700   0.0804597   0.0000000), wk =   0.0045977
        k(   59) = (   0.4540229   0.0919539   0.0000000), wk =   0.0045977
        k(   60) = (   0.4482758   0.1034482   0.0000000), wk =   0.0045977
        k(   61) = (   0.4425286   0.1149424   0.0000000), wk =   0.0045977
        k(   62) = (   0.4367815   0.1264367   0.0000000), wk =   0.0045977
        k(   63) = (   0.4310343   0.1379309   0.0000000), wk =   0.0045977
        k(   64) = (   0.4252872   0.1494251   0.0000000), wk =   0.0045977
        k(   65) = (   0.4195401   0.1609194   0.0000000), wk =   0.0045977
        k(   66) = (   0.4137929   0.1724136   0.0000000), wk =   0.0045977
        k(   67) = (   0.4080458   0.1839079   0.0000000), wk =   0.0045977
        k(   68) = (   0.4022987   0.1954021   0.0000000), wk =   0.0045977
        k(   69) = (   0.3965515   0.2068963   0.0000000), wk =   0.0045977
        k(   70) = (   0.3908044   0.2183906   0.0000000), wk =   0.0045977
        k(   71) = (   0.3850572   0.2298848   0.0000000), wk =   0.0045977
        k(   72) = (   0.3793101   0.2413791   0.0000000), wk =   0.0045977
        k(   73) = (   0.3735630   0.2528733   0.0000000), wk =   0.0045977
        k(   74) = (   0.3678158   0.2643676   0.0000000), wk =   0.0045977
        k(   75) = (   0.3620687   0.2758618   0.0000000), wk =   0.0045977
        k(   76) = (   0.3563216   0.2873560   0.0000000), wk =   0.0045977
        k(   77) = (   0.3505744   0.2988503   0.0000000), wk =   0.0045977
        k(   78) = (   0.3448273   0.3103445   0.0000000), wk =   0.0045977
        k(   79) = (   0.3390801   0.3218388   0.0000000), wk =   0.0045977
        k(   80) = (   0.3333330   0.3333330   0.0000000), wk =   0.0045977
        k(   81) = (   0.3275859   0.3275859   0.0000000), wk =   0.0045977
        k(   82) = (   0.3218388   0.3218388   0.0000000), wk =   0.0045977
        k(   83) = (   0.3160916   0.3160916   0.0000000), wk =   0.0045977
        k(   84) = (   0.3103445   0.3103445   0.0000000), wk =   0.0045977
        k(   85) = (   0.3045974   0.3045974   0.0000000), wk =   0.0045977
        k(   86) = (   0.2988503   0.2988503   0.0000000), wk =   0.0045977
        k(   87) = (   0.2931032   0.2931032   0.0000000), wk =   0.0045977
        k(   88) = (   0.2873560   0.2873560   0.0000000), wk =   0.0045977
        k(   89) = (   0.2816089   0.2816089   0.0000000), wk =   0.0045977
        k(   90) = (   0.2758618   0.2758618   0.0000000), wk =   0.0045977
        k(   91) = (   0.2701147   0.2701147   0.0000000), wk =   0.0045977
        k(   92) = (   0.2643676   0.2643676   0.0000000), wk =   0.0045977
        k(   93) = (   0.2586204   0.2586204   0.0000000), wk =   0.0045977
        k(   94) = (   0.2528733   0.2528733   0.0000000), wk =   0.0045977
        k(   95) = (   0.2471262   0.2471262   0.0000000), wk =   0.0045977
        k(   96) = (   0.2413791   0.2413791   0.0000000), wk =   0.0045977
        k(   97) = (   0.2356319   0.2356319   0.0000000), wk =   0.0045977
        k(   98) = (   0.2298848   0.2298848   0.0000000), wk =   0.0045977
        k(   99) = (   0.2241377   0.2241377   0.0000000), wk =   0.0045977
        k(  100) = (   0.2183906   0.2183906   0.0000000), wk =   0.0045977
        k(  101) = (   0.2126435   0.2126435   0.0000000), wk =   0.0045977
        k(  102) = (   0.2068963   0.2068963   0.0000000), wk =   0.0045977
        k(  103) = (   0.2011492   0.2011492   0.0000000), wk =   0.0045977
        k(  104) = (   0.1954021   0.1954021   0.0000000), wk =   0.0045977
        k(  105) = (   0.1896550   0.1896550   0.0000000), wk =   0.0045977
        k(  106) = (   0.1839079   0.1839079   0.0000000), wk =   0.0045977
        k(  107) = (   0.1781607   0.1781607   0.0000000), wk =   0.0045977
        k(  108) = (   0.1724136   0.1724136   0.0000000), wk =   0.0045977
        k(  109) = (   0.1666665   0.1666665   0.0000000), wk =   0.0045977
        k(  110) = (   0.1609194   0.1609194   0.0000000), wk =   0.0045977
        k(  111) = (   0.1551723   0.1551723   0.0000000), wk =   0.0045977
        k(  112) = (   0.1494251   0.1494251   0.0000000), wk =   0.0045977
        k(  113) = (   0.1436780   0.1436780   0.0000000), wk =   0.0045977
        k(  114) = (   0.1379309   0.1379309   0.0000000), wk =   0.0045977
        k(  115) = (   0.1321838   0.1321838   0.0000000), wk =   0.0045977
        k(  116) = (   0.1264367   0.1264367   0.0000000), wk =   0.0045977
        k(  117) = (   0.1206895   0.1206895   0.0000000), wk =   0.0045977
        k(  118) = (   0.1149424   0.1149424   0.0000000), wk =   0.0045977
        k(  119) = (   0.1091953   0.1091953   0.0000000), wk =   0.0045977
        k(  120) = (   0.1034482   0.1034482   0.0000000), wk =   0.0045977
        k(  121) = (   0.0977011   0.0977011   0.0000000), wk =   0.0045977
        k(  122) = (   0.0919539   0.0919539   0.0000000), wk =   0.0045977
        k(  123) = (   0.0862068   0.0862068   0.0000000), wk =   0.0045977
        k(  124) = (   0.0804597   0.0804597   0.0000000), wk =   0.0045977
        k(  125) = (   0.0747126   0.0747126   0.0000000), wk =   0.0045977
        k(  126) = (   0.0689654   0.0689654   0.0000000), wk =   0.0045977
        k(  127) = (   0.0632183   0.0632183   0.0000000), wk =   0.0045977
        k(  128) = (   0.0574712   0.0574712   0.0000000), wk =   0.0045977
        k(  129) = (   0.0517241   0.0517241   0.0000000), wk =   0.0045977
        k(  130) = (   0.0459770   0.0459770   0.0000000), wk =   0.0045977
        k(  131) = (   0.0402298   0.0402298   0.0000000), wk =   0.0045977
        k(  132) = (   0.0344827   0.0344827   0.0000000), wk =   0.0045977
        k(  133) = (   0.0287356   0.0287356   0.0000000), wk =   0.0045977
        k(  134) = (   0.0229885   0.0229885   0.0000000), wk =   0.0045977
        k(  135) = (   0.0172414   0.0172414   0.0000000), wk =   0.0045977
        k(  136) = (   0.0114942   0.0114942   0.0000000), wk =   0.0045977
        k(  137) = (   0.0057471   0.0057471   0.0000000), wk =   0.0045977
        k(  138) = (   0.0000000   0.0000000   0.0000000), wk =   0.0045977
        k(  139) = (   0.0000000   0.0000000   0.0185185), wk =   0.0045977
        k(  140) = (   0.0000000   0.0000000   0.0370370), wk =   0.0045977
        k(  141) = (   0.0000000   0.0000000   0.0555556), wk =   0.0045977
        k(  142) = (   0.0000000   0.0000000   0.0740741), wk =   0.0045977
        k(  143) = (   0.0000000   0.0000000   0.0925926), wk =   0.0045977
        k(  144) = (   0.0000000   0.0000000   0.1111111), wk =   0.0045977
        k(  145) = (   0.0000000   0.0000000   0.1296296), wk =   0.0045977
        k(  146) = (   0.0000000   0.0000000   0.1481481), wk =   0.0045977
        k(  147) = (   0.0000000   0.0000000   0.1666667), wk =   0.0045977
        k(  148) = (   0.0000000   0.0000000   0.1851852), wk =   0.0045977
        k(  149) = (   0.0000000   0.0000000   0.2037037), wk =   0.0045977
        k(  150) = (   0.0000000   0.0000000   0.2222222), wk =   0.0045977
        k(  151) = (   0.0000000   0.0000000   0.2407407), wk =   0.0045977
        k(  152) = (   0.0000000   0.0000000   0.2592593), wk =   0.0045977
        k(  153) = (   0.0000000   0.0000000   0.2777778), wk =   0.0045977
        k(  154) = (   0.0000000   0.0000000   0.2962963), wk =   0.0045977
        k(  155) = (   0.0000000   0.0000000   0.3148148), wk =   0.0045977
        k(  156) = (   0.0000000   0.0000000   0.3333333), wk =   0.0045977
        k(  157) = (   0.0000000   0.0000000   0.3518519), wk =   0.0045977
        k(  158) = (   0.0000000   0.0000000   0.3703704), wk =   0.0045977
        k(  159) = (   0.0000000   0.0000000   0.3888889), wk =   0.0045977
        k(  160) = (   0.0000000   0.0000000   0.4074074), wk =   0.0045977
        k(  161) = (   0.0000000   0.0000000   0.4259259), wk =   0.0045977
        k(  162) = (   0.0000000   0.0000000   0.4444444), wk =   0.0045977
        k(  163) = (   0.0000000   0.0000000   0.4629630), wk =   0.0045977
        k(  164) = (   0.0000000   0.0000000   0.4814815), wk =   0.0045977
        k(  165) = (   0.0000000   0.0000000   0.5000000), wk =   0.0045977
        k(  166) = (   0.0100000   0.0000000   0.5000000), wk =   0.0045977
        k(  167) = (   0.0200000   0.0000000   0.5000000), wk =   0.0045977
        k(  168) = (   0.0300000   0.0000000   0.5000000), wk =   0.0045977
        k(  169) = (   0.0400000   0.0000000   0.5000000), wk =   0.0045977
        k(  170) = (   0.0500000   0.0000000   0.5000000), wk =   0.0045977
        k(  171) = (   0.0600000   0.0000000   0.5000000), wk =   0.0045977
        k(  172) = (   0.0700000   0.0000000   0.5000000), wk =   0.0045977
        k(  173) = (   0.0800000   0.0000000   0.5000000), wk =   0.0045977
        k(  174) = (   0.0900000   0.0000000   0.5000000), wk =   0.0045977
        k(  175) = (   0.1000000   0.0000000   0.5000000), wk =   0.0045977
        k(  176) = (   0.1100000   0.0000000   0.5000000), wk =   0.0045977
        k(  177) = (   0.1200000   0.0000000   0.5000000), wk =   0.0045977
        k(  178) = (   0.1300000   0.0000000   0.5000000), wk =   0.0045977
        k(  179) = (   0.1400000   0.0000000   0.5000000), wk =   0.0045977
        k(  180) = (   0.1500000   0.0000000   0.5000000), wk =   0.0045977
        k(  181) = (   0.1600000   0.0000000   0.5000000), wk =   0.0045977
        k(  182) = (   0.1700000   0.0000000   0.5000000), wk =   0.0045977
        k(  183) = (   0.1800000   0.0000000   0.5000000), wk =   0.0045977
        k(  184) = (   0.1900000   0.0000000   0.5000000), wk =   0.0045977
        k(  185) = (   0.2000000   0.0000000   0.5000000), wk =   0.0045977
        k(  186) = (   0.2100000   0.0000000   0.5000000), wk =   0.0045977
        k(  187) = (   0.2200000   0.0000000   0.5000000), wk =   0.0045977
        k(  188) = (   0.2300000   0.0000000   0.5000000), wk =   0.0045977
        k(  189) = (   0.2400000   0.0000000   0.5000000), wk =   0.0045977
        k(  190) = (   0.2500000   0.0000000   0.5000000), wk =   0.0045977
        k(  191) = (   0.2600000   0.0000000   0.5000000), wk =   0.0045977
        k(  192) = (   0.2700000   0.0000000   0.5000000), wk =   0.0045977
        k(  193) = (   0.2800000   0.0000000   0.5000000), wk =   0.0045977
        k(  194) = (   0.2900000   0.0000000   0.5000000), wk =   0.0045977
        k(  195) = (   0.3000000   0.0000000   0.5000000), wk =   0.0045977
        k(  196) = (   0.3100000   0.0000000   0.5000000), wk =   0.0045977
        k(  197) = (   0.3200000   0.0000000   0.5000000), wk =   0.0045977
        k(  198) = (   0.3300000   0.0000000   0.5000000), wk =   0.0045977
        k(  199) = (   0.3400000   0.0000000   0.5000000), wk =   0.0045977
        k(  200) = (   0.3500000   0.0000000   0.5000000), wk =   0.0045977
        k(  201) = (   0.3600000   0.0000000   0.5000000), wk =   0.0045977
        k(  202) = (   0.3700000   0.0000000   0.5000000), wk =   0.0045977
        k(  203) = (   0.3800000   0.0000000   0.5000000), wk =   0.0045977
        k(  204) = (   0.3900000   0.0000000   0.5000000), wk =   0.0045977
        k(  205) = (   0.4000000   0.0000000   0.5000000), wk =   0.0045977
        k(  206) = (   0.4100000   0.0000000   0.5000000), wk =   0.0045977
        k(  207) = (   0.4200000   0.0000000   0.5000000), wk =   0.0045977
        k(  208) = (   0.4300000   0.0000000   0.5000000), wk =   0.0045977
        k(  209) = (   0.4400000   0.0000000   0.5000000), wk =   0.0045977
        k(  210) = (   0.4500000   0.0000000   0.5000000), wk =   0.0045977
        k(  211) = (   0.4600000   0.0000000   0.5000000), wk =   0.0045977
        k(  212) = (   0.4700000   0.0000000   0.5000000), wk =   0.0045977
        k(  213) = (   0.4800000   0.0000000   0.5000000), wk =   0.0045977
        k(  214) = (   0.4900000   0.0000000   0.5000000), wk =   0.0045977
        k(  215) = (   0.5000000   0.0000000   0.5000000), wk =   0.0045977
        k(  216) = (   0.4942529   0.0114942   0.5000000), wk =   0.0045977
        k(  217) = (   0.4885057   0.0229885   0.5000000), wk =   0.0045977
        k(  218) = (   0.4827586   0.0344827   0.5000000), wk =   0.0045977
        k(  219) = (   0.4770114   0.0459770   0.5000000), wk =   0.0045977
        k(  220) = (   0.4712643   0.0574712   0.5000000), wk =   0.0045977
        k(  221) = (   0.4655172   0.0689654   0.5000000), wk =   0.0045977
        k(  222) = (   0.4597700   0.0804597   0.5000000), wk =   0.0045977
        k(  223) = (   0.4540229   0.0919539   0.5000000), wk =   0.0045977
        k(  224) = (   0.4482758   0.1034482   0.5000000), wk =   0.0045977
        k(  225) = (   0.4425286   0.1149424   0.5000000), wk =   0.0045977
        k(  226) = (   0.4367815   0.1264367   0.5000000), wk =   0.0045977
        k(  227) = (   0.4310343   0.1379309   0.5000000), wk =   0.0045977
        k(  228) = (   0.4252872   0.1494251   0.5000000), wk =   0.0045977
        k(  229) = (   0.4195401   0.1609194   0.5000000), wk =   0.0045977
        k(  230) = (   0.4137929   0.1724136   0.5000000), wk =   0.0045977
        k(  231) = (   0.4080458   0.1839079   0.5000000), wk =   0.0045977
        k(  232) = (   0.4022987   0.1954021   0.5000000), wk =   0.0045977
        k(  233) = (   0.3965515   0.2068963   0.5000000), wk =   0.0045977
        k(  234) = (   0.3908044   0.2183906   0.5000000), wk =   0.0045977
        k(  235) = (   0.3850572   0.2298848   0.5000000), wk =   0.0045977
        k(  236) = (   0.3793101   0.2413791   0.5000000), wk =   0.0045977
        k(  237) = (   0.3735630   0.2528733   0.5000000), wk =   0.0045977
        k(  238) = (   0.3678158   0.2643676   0.5000000), wk =   0.0045977
        k(  239) = (   0.3620687   0.2758618   0.5000000), wk =   0.0045977
        k(  240) = (   0.3563216   0.2873560   0.5000000), wk =   0.0045977
        k(  241) = (   0.3505744   0.2988503   0.5000000), wk =   0.0045977
        k(  242) = (   0.3448273   0.3103445   0.5000000), wk =   0.0045977
        k(  243) = (   0.3390801   0.3218388   0.5000000), wk =   0.0045977
        k(  244) = (   0.3333330   0.3333330   0.5000000), wk =   0.0045977
        k(  245) = (   0.3275859   0.3275859   0.5000000), wk =   0.0045977
        k(  246) = (   0.3218388   0.3218388   0.5000000), wk =   0.0045977
        k(  247) = (   0.3160916   0.3160916   0.5000000), wk =   0.0045977
        k(  248) = (   0.3103445   0.3103445   0.5000000), wk =   0.0045977
        k(  249) = (   0.3045974   0.3045974   0.5000000), wk =   0.0045977
        k(  250) = (   0.2988503   0.2988503   0.5000000), wk =   0.0045977
        k(  251) = (   0.2931032   0.2931032   0.5000000), wk =   0.0045977
        k(  252) = (   0.2873560   0.2873560   0.5000000), wk =   0.0045977
        k(  253) = (   0.2816089   0.2816089   0.5000000), wk =   0.0045977
        k(  254) = (   0.2758618   0.2758618   0.5000000), wk =   0.0045977
        k(  255) = (   0.2701147   0.2701147   0.5000000), wk =   0.0045977
        k(  256) = (   0.2643676   0.2643676   0.5000000), wk =   0.0045977
        k(  257) = (   0.2586204   0.2586204   0.5000000), wk =   0.0045977
        k(  258) = (   0.2528733   0.2528733   0.5000000), wk =   0.0045977
        k(  259) = (   0.2471262   0.2471262   0.5000000), wk =   0.0045977
        k(  260) = (   0.2413791   0.2413791   0.5000000), wk =   0.0045977
        k(  261) = (   0.2356319   0.2356319   0.5000000), wk =   0.0045977
        k(  262) = (   0.2298848   0.2298848   0.5000000), wk =   0.0045977
        k(  263) = (   0.2241377   0.2241377   0.5000000), wk =   0.0045977
        k(  264) = (   0.2183906   0.2183906   0.5000000), wk =   0.0045977
        k(  265) = (   0.2126435   0.2126435   0.5000000), wk =   0.0045977
        k(  266) = (   0.2068963   0.2068963   0.5000000), wk =   0.0045977
        k(  267) = (   0.2011492   0.2011492   0.5000000), wk =   0.0045977
        k(  268) = (   0.1954021   0.1954021   0.5000000), wk =   0.0045977
        k(  269) = (   0.1896550   0.1896550   0.5000000), wk =   0.0045977
        k(  270) = (   0.1839079   0.1839079   0.5000000), wk =   0.0045977
        k(  271) = (   0.1781607   0.1781607   0.5000000), wk =   0.0045977
        k(  272) = (   0.1724136   0.1724136   0.5000000), wk =   0.0045977
        k(  273) = (   0.1666665   0.1666665   0.5000000), wk =   0.0045977
        k(  274) = (   0.1609194   0.1609194   0.5000000), wk =   0.0045977
        k(  275) = (   0.1551723   0.1551723   0.5000000), wk =   0.0045977
        k(  276) = (   0.1494251   0.1494251   0.5000000), wk =   0.0045977
        k(  277) = (   0.1436780   0.1436780   0.5000000), wk =   0.0045977
        k(  278) = (   0.1379309   0.1379309   0.5000000), wk =   0.0045977
        k(  279) = (   0.1321838   0.1321838   0.5000000), wk =   0.0045977
        k(  280) = (   0.1264367   0.1264367   0.5000000), wk =   0.0045977
        k(  281) = (   0.1206895   0.1206895   0.5000000), wk =   0.0045977
        k(  282) = (   0.1149424   0.1149424   0.5000000), wk =   0.0045977
        k(  283) = (   0.1091953   0.1091953   0.5000000), wk =   0.0045977
        k(  284) = (   0.1034482   0.1034482   0.5000000), wk =   0.0045977
        k(  285) = (   0.0977011   0.0977011   0.5000000), wk =   0.0045977
        k(  286) = (   0.0919539   0.0919539   0.5000000), wk =   0.0045977
        k(  287) = (   0.0862068   0.0862068   0.5000000), wk =   0.0045977
        k(  288) = (   0.0804597   0.0804597   0.5000000), wk =   0.0045977
        k(  289) = (   0.0747126   0.0747126   0.5000000), wk =   0.0045977
        k(  290) = (   0.0689654   0.0689654   0.5000000), wk =   0.0045977
        k(  291) = (   0.0632183   0.0632183   0.5000000), wk =   0.0045977
        k(  292) = (   0.0574712   0.0574712   0.5000000), wk =   0.0045977
        k(  293) = (   0.0517241   0.0517241   0.5000000), wk =   0.0045977
        k(  294) = (   0.0459770   0.0459770   0.5000000), wk =   0.0045977
        k(  295) = (   0.0402298   0.0402298   0.5000000), wk =   0.0045977
        k(  296) = (   0.0344827   0.0344827   0.5000000), wk =   0.0045977
        k(  297) = (   0.0287356   0.0287356   0.5000000), wk =   0.0045977
        k(  298) = (   0.0229885   0.0229885   0.5000000), wk =   0.0045977
        k(  299) = (   0.0172414   0.0172414   0.5000000), wk =   0.0045977
        k(  300) = (   0.0114942   0.0114942   0.5000000), wk =   0.0045977
        k(  301) = (   0.0057471   0.0057471   0.5000000), wk =   0.0045977
        k(  302) = (   0.0000000   0.0000000   0.5000000), wk =   0.0045977
        k(  303) = (   0.0100000   0.0000000   0.5000000), wk =   0.0045977
        k(  304) = (   0.0200000   0.0000000   0.5000000), wk =   0.0045977
        k(  305) = (   0.0300000   0.0000000   0.5000000), wk =   0.0045977
        k(  306) = (   0.0400000   0.0000000   0.5000000), wk =   0.0045977
        k(  307) = (   0.0500000   0.0000000   0.5000000), wk =   0.0045977
        k(  308) = (   0.0600000   0.0000000   0.5000000), wk =   0.0045977
        k(  309) = (   0.0700000   0.0000000   0.5000000), wk =   0.0045977
        k(  310) = (   0.0800000   0.0000000   0.5000000), wk =   0.0045977
        k(  311) = (   0.0900000   0.0000000   0.5000000), wk =   0.0045977
        k(  312) = (   0.1000000   0.0000000   0.5000000), wk =   0.0045977
        k(  313) = (   0.1100000   0.0000000   0.5000000), wk =   0.0045977
        k(  314) = (   0.1200000   0.0000000   0.5000000), wk =   0.0045977
        k(  315) = (   0.1300000   0.0000000   0.5000000), wk =   0.0045977
        k(  316) = (   0.1400000   0.0000000   0.5000000), wk =   0.0045977
        k(  317) = (   0.1500000   0.0000000   0.5000000), wk =   0.0045977
        k(  318) = (   0.1600000   0.0000000   0.5000000), wk =   0.0045977
        k(  319) = (   0.1700000   0.0000000   0.5000000), wk =   0.0045977
        k(  320) = (   0.1800000   0.0000000   0.5000000), wk =   0.0045977
        k(  321) = (   0.1900000   0.0000000   0.5000000), wk =   0.0045977
        k(  322) = (   0.2000000   0.0000000   0.5000000), wk =   0.0045977
        k(  323) = (   0.2100000   0.0000000   0.5000000), wk =   0.0045977
        k(  324) = (   0.2200000   0.0000000   0.5000000), wk =   0.0045977
        k(  325) = (   0.2300000   0.0000000   0.5000000), wk =   0.0045977
        k(  326) = (   0.2400000   0.0000000   0.5000000), wk =   0.0045977
        k(  327) = (   0.2500000   0.0000000   0.5000000), wk =   0.0045977
        k(  328) = (   0.2600000   0.0000000   0.5000000), wk =   0.0045977
        k(  329) = (   0.2700000   0.0000000   0.5000000), wk =   0.0045977
        k(  330) = (   0.2800000   0.0000000   0.5000000), wk =   0.0045977
        k(  331) = (   0.2900000   0.0000000   0.5000000), wk =   0.0045977
        k(  332) = (   0.3000000   0.0000000   0.5000000), wk =   0.0045977
        k(  333) = (   0.3100000   0.0000000   0.5000000), wk =   0.0045977
        k(  334) = (   0.3200000   0.0000000   0.5000000), wk =   0.0045977
        k(  335) = (   0.3300000   0.0000000   0.5000000), wk =   0.0045977
        k(  336) = (   0.3400000   0.0000000   0.5000000), wk =   0.0045977
        k(  337) = (   0.3500000   0.0000000   0.5000000), wk =   0.0045977
        k(  338) = (   0.3600000   0.0000000   0.5000000), wk =   0.0045977
        k(  339) = (   0.3700000   0.0000000   0.5000000), wk =   0.0045977
        k(  340) = (   0.3800000   0.0000000   0.5000000), wk =   0.0045977
        k(  341) = (   0.3900000   0.0000000   0.5000000), wk =   0.0045977
        k(  342) = (   0.4000000   0.0000000   0.5000000), wk =   0.0045977
        k(  343) = (   0.4100000   0.0000000   0.5000000), wk =   0.0045977
        k(  344) = (   0.4200000   0.0000000   0.5000000), wk =   0.0045977
        k(  345) = (   0.4300000   0.0000000   0.5000000), wk =   0.0045977
        k(  346) = (   0.4400000   0.0000000   0.5000000), wk =   0.0045977
        k(  347) = (   0.4500000   0.0000000   0.5000000), wk =   0.0045977
        k(  348) = (   0.4600000   0.0000000   0.5000000), wk =   0.0045977
        k(  349) = (   0.4700000   0.0000000   0.5000000), wk =   0.0045977
        k(  350) = (   0.4800000   0.0000000   0.5000000), wk =   0.0045977
        k(  351) = (   0.4900000   0.0000000   0.5000000), wk =   0.0045977
        k(  352) = (   0.5000000   0.0000000   0.5000000), wk =   0.0045977
        k(  353) = (   0.5000000   0.0000000   0.4814815), wk =   0.0045977
        k(  354) = (   0.5000000   0.0000000   0.4629630), wk =   0.0045977
        k(  355) = (   0.5000000   0.0000000   0.4444444), wk =   0.0045977
        k(  356) = (   0.5000000   0.0000000   0.4259259), wk =   0.0045977
        k(  357) = (   0.5000000   0.0000000   0.4074074), wk =   0.0045977
        k(  358) = (   0.5000000   0.0000000   0.3888889), wk =   0.0045977
        k(  359) = (   0.5000000   0.0000000   0.3703704), wk =   0.0045977
        k(  360) = (   0.5000000   0.0000000   0.3518519), wk =   0.0045977
        k(  361) = (   0.5000000   0.0000000   0.3333333), wk =   0.0045977
        k(  362) = (   0.5000000   0.0000000   0.3148148), wk =   0.0045977
        k(  363) = (   0.5000000   0.0000000   0.2962963), wk =   0.0045977
        k(  364) = (   0.5000000   0.0000000   0.2777778), wk =   0.0045977
        k(  365) = (   0.5000000   0.0000000   0.2592593), wk =   0.0045977
        k(  366) = (   0.5000000   0.0000000   0.2407407), wk =   0.0045977
        k(  367) = (   0.5000000   0.0000000   0.2222222), wk =   0.0045977
        k(  368) = (   0.5000000   0.0000000   0.2037037), wk =   0.0045977
        k(  369) = (   0.5000000   0.0000000   0.1851852), wk =   0.0045977
        k(  370) = (   0.5000000   0.0000000   0.1666667), wk =   0.0045977
        k(  371) = (   0.5000000   0.0000000   0.1481481), wk =   0.0045977
        k(  372) = (   0.5000000   0.0000000   0.1296296), wk =   0.0045977
        k(  373) = (   0.5000000   0.0000000   0.1111111), wk =   0.0045977
        k(  374) = (   0.5000000   0.0000000   0.0925926), wk =   0.0045977
        k(  375) = (   0.5000000   0.0000000   0.0740741), wk =   0.0045977
        k(  376) = (   0.5000000   0.0000000   0.0555556), wk =   0.0045977
        k(  377) = (   0.5000000   0.0000000   0.0370370), wk =   0.0045977
        k(  378) = (   0.5000000   0.0000000   0.0185185), wk =   0.0045977
        k(  379) = (   0.5000000   0.0000000   0.0000000), wk =   0.0045977
        k(  380) = (   0.4942529   0.0114942   0.0000000), wk =   0.0045977
        k(  381) = (   0.4885057   0.0229885   0.0000000), wk =   0.0045977
        k(  382) = (   0.4827586   0.0344827   0.0000000), wk =   0.0045977
        k(  383) = (   0.4770114   0.0459770   0.0000000), wk =   0.0045977
        k(  384) = (   0.4712643   0.0574712   0.0000000), wk =   0.0045977
        k(  385) = (   0.4655172   0.0689654   0.0000000), wk =   0.0045977
        k(  386) = (   0.4597700   0.0804597   0.0000000), wk =   0.0045977
        k(  387) = (   0.4540229   0.0919539   0.0000000), wk =   0.0045977
        k(  388) = (   0.4482758   0.1034482   0.0000000), wk =   0.0045977
        k(  389) = (   0.4425286   0.1149424   0.0000000), wk =   0.0045977
        k(  390) = (   0.4367815   0.1264367   0.0000000), wk =   0.0045977
        k(  391) = (   0.4310343   0.1379309   0.0000000), wk =   0.0045977
        k(  392) = (   0.4252872   0.1494251   0.0000000), wk =   0.0045977
        k(  393) = (   0.4195401   0.1609194   0.0000000), wk =   0.0045977
        k(  394) = (   0.4137929   0.1724136   0.0000000), wk =   0.0045977
        k(  395) = (   0.4080458   0.1839079   0.0000000), wk =   0.0045977
        k(  396) = (   0.4022987   0.1954021   0.0000000), wk =   0.0045977
        k(  397) = (   0.3965515   0.2068963   0.0000000), wk =   0.0045977
        k(  398) = (   0.3908044   0.2183906   0.0000000), wk =   0.0045977
        k(  399) = (   0.3850572   0.2298848   0.0000000), wk =   0.0045977
        k(  400) = (   0.3793101   0.2413791   0.0000000), wk =   0.0045977
        k(  401) = (   0.3735630   0.2528733   0.0000000), wk =   0.0045977
        k(  402) = (   0.3678158   0.2643676   0.0000000), wk =   0.0045977
        k(  403) = (   0.3620687   0.2758618   0.0000000), wk =   0.0045977
        k(  404) = (   0.3563216   0.2873560   0.0000000), wk =   0.0045977
        k(  405) = (   0.3505744   0.2988503   0.0000000), wk =   0.0045977
        k(  406) = (   0.3448273   0.3103445   0.0000000), wk =   0.0045977
        k(  407) = (   0.3390801   0.3218388   0.0000000), wk =   0.0045977
        k(  408) = (   0.3333330   0.3333330   0.0000000), wk =   0.0045977
        k(  409) = (   0.3333330   0.3333330   0.0185185), wk =   0.0045977
        k(  410) = (   0.3333330   0.3333330   0.0370370), wk =   0.0045977
        k(  411) = (   0.3333330   0.3333330   0.0555556), wk =   0.0045977
        k(  412) = (   0.3333330   0.3333330   0.0740741), wk =   0.0045977
        k(  413) = (   0.3333330   0.3333330   0.0925926), wk =   0.0045977
        k(  414) = (   0.3333330   0.3333330   0.1111111), wk =   0.0045977
        k(  415) = (   0.3333330   0.3333330   0.1296296), wk =   0.0045977
        k(  416) = (   0.3333330   0.3333330   0.1481481), wk =   0.0045977
        k(  417) = (   0.3333330   0.3333330   0.1666667), wk =   0.0045977
        k(  418) = (   0.3333330   0.3333330   0.1851852), wk =   0.0045977
        k(  419) = (   0.3333330   0.3333330   0.2037037), wk =   0.0045977
        k(  420) = (   0.3333330   0.3333330   0.2222222), wk =   0.0045977
        k(  421) = (   0.3333330   0.3333330   0.2407407), wk =   0.0045977
        k(  422) = (   0.3333330   0.3333330   0.2592593), wk =   0.0045977
        k(  423) = (   0.3333330   0.3333330   0.2777778), wk =   0.0045977
        k(  424) = (   0.3333330   0.3333330   0.2962963), wk =   0.0045977
        k(  425) = (   0.3333330   0.3333330   0.3148148), wk =   0.0045977
        k(  426) = (   0.3333330   0.3333330   0.3333333), wk =   0.0045977
        k(  427) = (   0.3333330   0.3333330   0.3518519), wk =   0.0045977
        k(  428) = (   0.3333330   0.3333330   0.3703704), wk =   0.0045977
        k(  429) = (   0.3333330   0.3333330   0.3888889), wk =   0.0045977
        k(  430) = (   0.3333330   0.3333330   0.4074074), wk =   0.0045977
        k(  431) = (   0.3333330   0.3333330   0.4259259), wk =   0.0045977
        k(  432) = (   0.3333330   0.3333330   0.4444444), wk =   0.0045977
        k(  433) = (   0.3333330   0.3333330   0.4629630), wk =   0.0045977
        k(  434) = (   0.3333330   0.3333330   0.4814815), wk =   0.0045977
        k(  435) = (   0.3333330   0.3333330   0.5000000), wk =   0.0045977

     Dense  grid:   346889 G-vectors     FFT dimensions: (  80,  80, 128)

     Largest allocated arrays     est. size (Mb)     dimensions
        Kohn-Sham Wavefunctions         8.63 Mb     (  10876,   52)
        NL pseudopotentials             1.66 Mb     (  10876,   10)
        Each V/rho on FFT grid          3.12 Mb     ( 204800)
        Each G-vector array             0.66 Mb     (  86727)
        G-vector shells                 0.11 Mb     (  14872)
     Largest temporary arrays     est. size (Mb)     dimensions
        Auxiliary wavefunctions        34.52 Mb     (  10876,  208)
        Each subspace H/S matrix        0.66 Mb     ( 208, 208)
        Each <psi_i|beta_j> matrix      0.01 Mb     (     10,   52)
     writing wfc files to a dedicated directory

     Check: negative/imaginary core charge=   -0.000103    0.000000

     The potential is recalculated from file :
     ./Zn2O2.save/charge-density.dat

     Starting wfc are   34 randomized atomic wfcs

     total cpu time spent up to now is        5.3 secs

     per-process dynamical memory:    67.3 Mb

     Band Structure Calculation
     Davidson diagonalization with overlap

     Computing kpt #:     1
     total cpu time spent up to now is       61.6 secs

     Computing kpt #:     2
     total cpu time spent up to now is      121.4 secs

     Computing kpt #:     3
     total cpu time spent up to now is      181.2 secs

     Computing kpt #:     4
     total cpu time spent up to now is      240.5 secs

     Computing kpt #:     5
     total cpu time spent up to now is      300.4 secs

     Computing kpt #:     6
     total cpu time spent up to now is      360.8 secs

     Computing kpt #:     7
     total cpu time spent up to now is      422.0 secs

     Computing kpt #:     8
     total cpu time spent up to now is      477.4 secs

     Computing kpt #:     9
     total cpu time spent up to now is      531.9 secs

     Computing kpt #:    10
     total cpu time spent up to now is      585.9 secs

     Computing kpt #:    11
     total cpu time spent up to now is      641.0 secs

     Computing kpt #:    12
     total cpu time spent up to now is      695.6 secs

     Computing kpt #:    13
     total cpu time spent up to now is      739.5 secs

     ethr =  1.92E-13,  avg # of iterations = 24.7

     total cpu time spent up to now is      739.6 secs

     End of band structure calculation

          k = 0.0000 0.0000 0.0000     band energies (ev):

  -114.1639-114.1637 -68.8297 -68.8264 -68.8171 -68.8171 -68.8165 -68.8165
    -9.2949  -8.5166   2.7034   2.7034   2.7864   2.8381   2.8864   2.8864
     3.8680   3.8680   4.0842   4.0842   4.3847   7.7013   7.7013   8.4071
     8.4966   8.4966   9.2408  13.5605  16.6352  21.1733  21.1733  22.4465
    22.4470  22.4470  24.7906  26.5416  26.5416  28.1563  28.1752  28.1752
    29.5314  31.4130  33.2224  33.2224  35.9691  36.7655  36.7655  37.1895
    39.5195  39.5195  42.9406  42.9406

          k = 0.0031 0.0018 0.0000     band energies (ev):

  -114.1639-114.1637 -68.8297 -68.8264 -68.8171 -68.8171 -68.8165 -68.8165
    -9.2943  -8.5163   2.7027   2.7037   2.7868   2.8388   2.8864   2.8869
[...]
    34.3790  34.5376  34.8352  35.2155  35.3899  35.9705  37.2608  37.6306
    42.6614  43.7356  44.6146  45.5407

          k = 0.1096 0.1654 0.0000     band energies (ev):

  -114.1637-114.1637 -68.8280 -68.8277 -68.8188 -68.8185 -68.8184 -68.8177
    -8.4229  -8.3638   2.6793   3.0147   3.1081   3.3855   3.6466   3.6839
     3.8266   3.9144   4.0246   4.0283   4.7160   4.8340   4.9818   6.3952
     6.6645   6.8155  15.7388  16.0973  16.2106  16.5986  19.0944  19.2833
    21.2788  21.8030  22.6360  29.1581  29.3860  30.4449  30.9376  32.4078
    34.4261  34.4433  34.7778  35.1460  35.2701  35.9660  37.2952  37.5849
    42.7288  43.6302  44.8762  45.5720

          k = 0.1079 0.1685 0.0000     band energies (ev):

  -114.1637-114.1637 -68.8279 -68.8277 -68.8187 -68.8185 -68.8185 -68.8177
    -8.4145  -8.3695   2.6810   3.0269   3.0970   3.4086   3.6667   3.7066
     3.8180   3.9175   3.9936   4.0097   4.6928   4.8490   4.9671   6.4359
     6.6505   6.7734  15.8214  16.0976  16.2021  16.5617  19.1073  19.2400
    21.3186  21.8694  22.4932  29.2662  29.4719  30.2571  30.9169  32.6770
    34.3602  34.4710  34.7267  34.9906  35.2405  35.9646  37.3308  37.5416
    42.8100  43.5113  45.1307  45.6104

          k = 0.1061 0.1715 0.0000     band energies (ev):

  -114.1637-114.1637 -68.8279 -68.8278 -68.8187 -68.8185 -68.8185 -68.8178
    -8.4062  -8.3758   2.6820   3.0392   3.0859   3.4253   3.6872   3.7273
     3.8077   3.9224   3.9677   3.9905   4.6766   4.8663   4.9496   6.4778
     6.6329   6.7381  15.9026  16.0974  16.1750  16.5338  19.1214  19.2041
    21.3543  21.9454  22.3561  29.3723  29.5590  30.0667  30.9047  32.9015
    34.3159  34.5137  34.6795  34.8171  35.2337  35.9638  37.3660  37.5011
    42.9047  43.3854  45.3734  45.6494

          k = 0.1043 0.1746 0.0000     band energies (ev):

  -114.1637-114.1637 -68.8279 -68.8278 -68.8187 -68.8185 -68.8185 -68.8178
    -8.3980  -8.3826   2.6826   3.0513   3.0746   3.4354   3.7077   3.7377
     3.7982   3.9291   3.9530   3.9709   4.6669   4.8858   4.9297   6.5209
     6.6050   6.7166  15.9822  16.0967  16.1270  16.5180  19.1370  19.1755
    21.3817  22.0300  22.2297  29.4723  29.6463  29.8809  30.8982  33.0487
    34.3453  34.5546  34.6354  34.6426  35.2322  35.9628  37.3997  37.4641
    43.0121  43.2574  45.5797  45.7013

          k = 0.1026 0.1776 0.0000     band energies (ev):

  -114.1637-114.1637 -68.8278 -68.8278 -68.8187 -68.8185 -68.8185 -68.8178
    -8.3901  -8.3901   2.6827   3.0632   3.0632   3.4388   3.7278   3.7278
     3.7952   3.9347   3.9545   3.9545   4.6637   4.9076   4.9076   6.5650
     6.5650   6.7104  16.0597  16.0597  16.0960  16.5133  19.1540  19.1540
    21.3930  22.1218  22.1218  29.5347  29.7327  29.7327  30.8962  33.0964
    34.4705  34.4705  34.5944  34.5944  35.2321  35.9621  37.4313  37.4313
    43.1311  43.1312  45.6390  45.8633

          k = 0.1026 0.1776 0.0036     band energies (ev):

  -114.1637-114.1637 -68.8278 -68.8278 -68.8187 -68.8185 -68.8185 -68.8178
    -8.3900  -8.3900   2.6831   3.0619   3.0619   3.4372   3.7239   3.7239
     3.7956   3.9346   3.9589   3.9589   4.6661   4.9070   4.9070   6.5675
     6.5675   6.7086  16.0601  16.0602  16.0967  16.5132  19.1451  19.1451
    21.3967  22.1313  22.1313  29.5042  29.7255  29.7255  30.9129  33.0920
    34.4153  34.4153  34.6614  34.6614  35.2498  35.9704  37.4278  37.4278
    43.1335  43.1336  45.6245  45.8633

          k = 0.1026 0.1776 0.0071     band energies (ev):

  -114.1637-114.1637 -68.8278 -68.8278 -68.8187 -68.8185 -68.8185 -68.8178
    -8.3899  -8.3899   2.6841   3.0582   3.0582   3.4324   3.7130   3.7130
     3.7965   3.9343   3.9711   3.9711   4.6730   4.9049   4.9049   6.5752
     6.5752   6.7035  16.0615  16.0616  16.0990  16.5128  19.1186  19.1186
    21.4078  22.1595  22.1595  29.4176  29.7041  29.7041  30.9584  33.0789
    34.3347  34.3347  34.7771  34.7771  35.3024  35.9952  37.4176  37.4176
    43.1407  43.1407  45.5812  45.8633

          k = 0.1026 0.1776 0.0107     band energies (ev):

  -114.1637-114.1637 -68.8278 -68.8278 -68.8187 -68.8185 -68.8185 -68.8178
    -8.3897  -8.3897   2.6858   3.0520   3.0520   3.4245   3.6973   3.6973
     3.7980   3.9338   3.9891   3.9891   4.6845   4.9016   4.9016   6.5877
     6.5877   6.6950  16.0639  16.0639  16.1027  16.5122  19.0757  19.0757
    21.4262  22.2052  22.2052  29.2863  29.6691  29.6691  31.0223  33.0576
    34.2607  34.2607  34.9087  34.9087  35.3888  36.0361  37.4013  37.4013
    43.1523  43.1523  45.5100  45.8631

          k = 0.1026 0.1776 0.0142     band energies (ev):

  -114.1637-114.1637 -68.8278 -68.8278 -68.8187 -68.8185 -68.8185 -68.8178
    -8.3894  -8.3894   2.6882   3.0434   3.0434   3.4139   3.6788   3.6788
     3.7999   3.9332   4.0109   4.0109   4.7004   4.8971   4.8971   6.6050
     6.6050   6.6831  16.0672  16.0672  16.1079  16.5113  19.0181  19.0181
    21.4521  22.2667  22.2667  29.1221  29.6213  29.6213  31.0944  33.0288
    34.1964  34.1964  35.0513  35.0513  35.5075  36.0921  37.3800  37.3800
    43.1679  43.1679  45.4123  45.8624

          k = 0.1026 0.1776 0.0178     band energies (ev):

  -114.1637-114.1637 -68.8278 -68.8278 -68.8187 -68.8185 -68.8185 -68.8178
    -8.3891  -8.3891   2.6913   3.0325   3.0325   3.4006   3.6590   3.6590
     3.8023   3.9323   4.0350   4.0350   4.7204   4.8914   4.8914   6.6267
     6.6267   6.6679  16.0715  16.0715  16.1144  16.5102  18.9478  18.9478
    21.4853  22.3420  22.3420  28.9344  29.5617  29.5617  31.1674  32.9934
    34.1422  34.1422  35.2025  35.2025  35.6562  36.1625  37.3552  37.3552
    43.1871  43.1871  45.2903  45.8607

          k = 0.1026 0.1776 0.0214     band energies (ev):

  -114.1637-114.1637 -68.8278 -68.8278 -68.8187 -68.8185 -68.8185 -68.8178
    -8.3886  -8.3886   2.6951   3.0194   3.0194   3.3852   3.6391   3.6391
     3.8049   3.9313   4.0603   4.0603   4.7443   4.8848   4.8848   6.6495
     6.6525   6.6525  16.0768  16.0768  16.1222  16.5088  18.8669  18.8669
    21.5259  22.4290  22.4290  28.7298  29.4917  29.4917  31.2373  32.9525
    34.0976  34.0976  35.3596  35.3596  35.8324  36.2460  37.3293  37.3294
    43.2092  43.2092  45.1468  45.8571

          k = 0.1026 0.1776 0.0249     band energies (ev):

  -114.1637-114.1637 -68.8278 -68.8278 -68.8187 -68.8185 -68.8185 -68.8178
    -8.3881  -8.3881   2.6995   3.0042   3.0042   3.3679   3.6196   3.6196
     3.8078   3.9301   4.0862   4.0862   4.7718   4.8772   4.8772   6.6279
     6.6819   6.6819  16.0831  16.0831  16.1312  16.5072  18.7774  18.7775
    21.5739  22.5256  22.5256  28.5132  29.4126  29.4126  31.3019  32.9071
    34.0620  34.0620  35.5192  35.5192  36.0332  36.3417  37.3059  37.3059
    43.2335  43.2335  44.9849  45.8505

          k = 0.1026 0.1776 0.0285     band energies (ev):

  -114.1637-114.1637 -68.8278 -68.8278 -68.8187 -68.8184 -68.8184 -68.8178
    -8.3876  -8.3876   2.7047   2.9872   2.9872   3.3489   3.6011   3.6011
     3.8109   3.9287   4.1121   4.1121   4.8028   4.8689   4.8689   6.6033
     6.7146   6.7146  16.0905  16.0905  16.1412  16.5052  18.6814  18.6814
    21.6292  22.6299  22.6299  28.2878  29.3258  29.3258  31.3603  32.8581
    34.0348  34.0348  35.6762  35.6763  36.2559  36.4484  37.2897  37.2897
    43.2592  43.2592  44.8079  45.8393

          k = 0.1026 0.1776 0.0321     band energies (ev):

  -114.1637-114.1637 -68.8278 -68.8278 -68.8186 -68.8184 -68.8184 -68.8178
    -8.3869  -8.3869   2.7105   2.9686   2.9686   3.3287   3.5838   3.5838
     3.8140   3.9272   4.1378   4.1378   4.8368   4.8600   4.8600   6.5758
     6.7500   6.7500  16.0990  16.0990  16.1523  16.5029  18.5805  18.5805
    21.6920  22.7401  22.7401  28.0564  29.2327  29.2327  31.4127  32.8065
    34.0151  34.0151  35.8238  35.8238  36.4975  36.5651  37.2878  37.2878
    43.2856  43.2856  44.6189  45.8213

          k = 0.1026 0.1776 0.0356     band energies (ev):

  -114.1637-114.1637 -68.8279 -68.8279 -68.8186 -68.8184 -68.8184 -68.8179
    -8.3863  -8.3863   2.7170   2.9486   2.9486   3.3074   3.5678   3.5678
     3.8173   3.9255   4.1629   4.1629   4.8505   4.8505   4.8737   6.5454
     6.7876   6.7876  16.1087  16.1087  16.1642  16.5004  18.4762  18.4762
    21.7621  22.8545  22.8546  27.8208  29.1347  29.1347  31.4594  32.7531
    34.0022  34.0022  35.9527  35.9527  36.6910  36.7552  37.3096  37.3096
    43.3120  43.3120  44.4212  45.7935

          k = 0.1026 0.1776 0.0392     band energies (ev):

  -114.1637-114.1637 -68.8279 -68.8279 -68.8186 -68.8184 -68.8184 -68.8179
    -8.3856  -8.3856   2.7242   2.9276   2.9276   3.2854   3.5532   3.5532
     3.8206   3.9236   4.1874   4.1874   4.8407   4.8407   4.9132   6.5124
     6.8268   6.8268  16.1196  16.1196  16.1769  16.4975  18.3699  18.3699
    21.8396  22.9719  22.9719  27.5826  29.0330  29.0330  31.5013  32.6986
    33.9956  33.9956  36.0527  36.0528  36.8252  37.0264  37.3652  37.3652
    43.3377  43.3378  44.2175  45.7522

          k = 0.1026 0.1776 0.0427     band energies (ev):

  -114.1637-114.1637 -68.8279 -68.8279 -68.8186 -68.8184 -68.8184 -68.8179
    -8.3849  -8.3849   2.7321   2.9059   2.9059   3.2627   3.5400   3.5400
     3.8239   3.9215   4.2111   4.2111   4.8306   4.8306   4.9550   6.4768
     6.8672   6.8672  16.1318  16.1318  16.1902  16.4942  18.2628  18.2629
    21.9243  23.0908  23.0908  27.3432  28.9289  28.9289  31.5389  32.6436
    33.9946  33.9946  36.1167  36.1167  36.9669  37.3083  37.4622  37.4622
    43.3621  43.3621  44.0107  45.6927

          k = 0.1026 0.1776 0.0463     band energies (ev):

  -114.1637-114.1637 -68.8279 -68.8279 -68.8186 -68.8184 -68.8184 -68.8179
    -8.3842  -8.3842   2.7408   2.8839   2.8839   3.2396   3.5282   3.5282
     3.8273   3.9193   4.2340   4.2340   4.8203   4.8203   4.9989   6.4388
     6.9082   6.9082  16.1453  16.1453  16.2039  16.4906  18.1560  18.1560
    22.0164  23.2101  23.2102  27.1034  28.8236  28.8236  31.5730  32.5886
    33.9986  33.9986  36.1438  36.1438  37.1154  37.5983  37.6011  37.6011
    43.3845  43.3845  43.8035  45.6103

          k = 0.1026 0.1776 0.0499     band energies (ev):

  -114.1637-114.1637 -68.8279 -68.8279 -68.8186 -68.8184 -68.8184 -68.8179
    -8.3834  -8.3834   2.7501   2.8619   2.8619   3.2163   3.5176   3.5176
     3.8307   3.9170   4.2558   4.2558   4.8100   4.8100   5.0447   6.3985
     6.9493   6.9493  16.1600  16.1600  16.2181  16.4866  18.0504  18.0504
    22.1158  23.3288  23.3288  26.8641  28.7181  28.7181  31.6042  32.5341
    34.0070  34.0070  36.1400  36.1400  37.2700  37.7764  37.7764  37.8934
    43.4044  43.4044  43.5987  45.5007

          k = 0.1026 0.1776 0.0534     band energies (ev):

  -114.1637-114.1637 -68.8279 -68.8279 -68.8185 -68.8184 -68.8184 -68.8179
    -8.3827  -8.3827   2.7601   2.8403   2.8403   3.1928   3.5082   3.5082
     3.8342   3.9145   4.2767   4.2767   4.7997   4.7997   5.0923   6.3561
     6.9899   6.9899  16.1762  16.1762  16.2324  16.4822  17.9467  17.9467
    22.2223  23.4456  23.4456  26.6261  28.6136  28.6136  31.6333  32.4804
    34.0192  34.0192  36.1135  36.1135  37.4302  37.9797  37.9797  38.1904
    43.3996  43.4211  43.4211  45.3618

          k = 0.1026 0.1776 0.0570     band energies (ev):

  -114.1637-114.1637 -68.8279 -68.8279 -68.8185 -68.8184 -68.8184 -68.8180
    -8.3820  -8.3820   2.7708   2.8192   2.8192   3.1694   3.4999   3.4999
     3.8377   3.9119   4.2964   4.2964   4.7895   4.7895   5.1413   6.3118
     7.0295   7.0295  16.1936  16.1936  16.2470  16.4774  17.8460  17.8460
    22.3360  23.5595  23.5595  26.3899  28.5111  28.5111  31.6607  32.4278
    34.0348  34.0348  36.0718  36.0718  37.5953  38.2036  38.2036  38.4854
    43.2101  43.4339  43.4339  45.1945

          k = 0.1026 0.1776 0.0605     band energies (ev):

  -114.1637-114.1637 -68.8279 -68.8279 -68.8185 -68.8184 -68.8184 -68.8180
    -8.3813  -8.3813   2.7822   2.7991   2.7991   3.1461   3.4926   3.4926
     3.8412   3.9092   4.3150   4.3150   4.7795   4.7795   5.1917   6.2656
     7.0676   7.0676  16.2123  16.2123  16.2615  16.4722  17.7488  17.7488
    22.4567  23.6696  23.6696  26.1561  28.4116  28.4116  31.6870  32.3766
    34.0531  34.0531  36.0207  36.0207  37.7649  38.4420  38.4420  38.7732
    43.0350  43.4418  43.4418  45.0027

          k = 0.1026 0.1776 0.0641     band energies (ev):

  -114.1637-114.1637 -68.8279 -68.8279 -68.8185 -68.8184 -68.8184 -68.8180
    -8.3807  -8.3807   2.7801   2.7801   2.7943   3.1230   3.4862   3.4862
     3.8447   3.9064   4.3323   4.3323   4.7699   4.7699   5.2434   6.2178
     7.1037   7.1037  16.2321  16.2321  16.2760  16.4665  17.6560  17.6560
    22.5845  23.7746  23.7746  25.9252  28.3164  28.3164  31.7126  32.3268
    34.0735  34.0735  35.9645  35.9645  37.9382  38.6903  38.6903  39.0472
    42.8809  43.4431  43.4431  44.7931

          k = 0.1026 0.1776 0.0677     band energies (ev):

  -114.1637-114.1637 -68.8279 -68.8279 -68.8184 -68.8184 -68.8184 -68.8180
    -8.3801  -8.3801   2.7626   2.7626   2.8070   3.1001   3.4807   3.4807
     3.8483   3.9034   4.3484   4.3484   4.7607   4.7607   5.2960   6.1685
     7.1374   7.1374  16.2530  16.2530  16.2903  16.4603  17.5683  17.5683
    22.7191  23.8735  23.8735  25.6975  28.2263  28.2263  31.7378  32.2788
    34.0954  34.0954  35.9065  35.9065  38.1147  38.9447  38.9447  39.2983
    42.7568  43.4350  43.4350  44.5744

          k = 0.1026 0.1776 0.0712     band energies (ev):

  -114.1637-114.1637 -68.8279 -68.8279 -68.8184 -68.8184 -68.8184 -68.8181
    -8.3795  -8.3795   2.7466   2.7466   2.8205   3.0777   3.4759   3.4759
     3.8518   3.9004   4.3630   4.3630   4.7520   4.7520   5.3496   6.1178
     7.1681   7.1682  16.2744  16.2744  16.3044  16.4536  17.4866  17.4866
    22.8606  23.9650  23.9650  25.4734  28.1428  28.1428  31.7630  32.2325
    34.1180  34.1180  35.8491  35.8491  38.2936  39.2015  39.2015  39.5149
    42.6741  43.4124  43.4124  44.3582

          k = 0.1026 0.1776 0.0748     band energies (ev):

  -114.1637-114.1637 -68.8279 -68.8279 -68.8184 -68.8184 -68.8184 -68.8181
    -8.3790  -8.3790   2.7325   2.7325   2.8347   3.0556   3.4719   3.4719
     3.8554   3.8972   4.3762   4.3762   4.7440   4.7440   5.4039   6.0660
     7.1957   7.1957  16.2961  16.2961  16.3182  16.4464  17.4117  17.4117
    23.0087  24.0480  24.0480  25.2533  28.0668  28.0668  31.7885  32.1881
    34.1405  34.1405  35.7945  35.7945  38.4742  39.4567  39.4567  39.6836
    42.6460  43.3662  43.3662  44.1600

          k = 0.1026 0.1776 0.0783     band energies (ev):

  -114.1637-114.1637 -68.8279 -68.8279 -68.8184 -68.8184 -68.8184 -68.8181
    -8.3786  -8.3786   2.7202   2.7202   2.8496   3.0340   3.4686   3.4686
     3.8590   3.8940   4.3876   4.3876   4.7368   4.7368   5.4589   6.0131
     7.2196   7.2196  16.3174  16.3174  16.3317  16.4387  17.3447  17.3447
    23.1634  24.1211  24.1211  25.0374  27.9997  27.9997  31.8146  32.1456
    34.1620  34.1620  35.7446  35.7446  38.6552  39.7054  39.7054  39.7923
    42.6844  43.2848  43.2848  43.9986

          k = 0.1026 0.1776 0.0819     band energies (ev):

  -114.1637-114.1637 -68.8279 -68.8279 -68.8184 -68.8184 -68.8183 -68.8181
    -8.3782  -8.3782   2.7100   2.7100   2.8651   3.0129   3.4659   3.4659
     3.8626   3.8907   4.3973   4.3973   4.7307   4.7307   5.5143   5.9594
     7.2396   7.2396  16.3373  16.3373  16.3447  16.4305  17.2869  17.2869
    23.3245  24.1831  24.1831  24.8260  27.9427  27.9427  31.8414  32.1049
    34.1815  34.1815  35.7010  35.7010  38.8356  39.8356  39.9408  39.9408
    42.7944  43.1637  43.1637  43.8869

          k = 0.1026 0.1776 0.0855     band energies (ev):

  -114.1637-114.1637 -68.8279 -68.8279 -68.8184 -68.8184 -68.8183 -68.8182
    -8.3779  -8.3779   2.7020   2.7020   2.8814   2.9923   3.4639   3.4639
     3.8662   3.8873   4.4051   4.4051   4.7256   4.7256   5.5701   5.9048
     7.2555   7.2555  16.3549  16.3549  16.3573  16.4217  17.2396  17.2396
    23.4920  24.2328  24.2328  24.6194  27.8969  27.8969  31.8693  32.0661
    34.1981  34.1981  35.6652  35.6652  39.0135  39.8172  40.1529  40.1529
    42.9722  43.0190  43.0190  43.8203

          k = 0.1026 0.1776 0.0890     band energies (ev):

  -114.1637-114.1637 -68.8279 -68.8279 -68.8184 -68.8184 -68.8183 -68.8182
    -8.3777  -8.3777   2.6962   2.6962   2.8982   2.9722   3.4624   3.4624
     3.8698   3.8839   4.4107   4.4107   4.7219   4.7219   5.6261   5.8497
     7.2669   7.2669  16.3688  16.3688  16.3693  16.4123  17.2043  17.2043
    23.6655  24.2691  24.2691  24.4178  27.8633  27.8634  31.8983  32.0292
    34.2108  34.2108  35.6386  35.6386  39.1867  39.7478  40.3274  40.3274
    42.8806  42.8806  43.2067  43.7841

          k = 0.1026 0.1776 0.0926     band energies (ev):

  -114.1637-114.1637 -68.8279 -68.8279 -68.8184 -68.8184 -68.8183 -68.8182
    -8.3776  -8.3776   2.6927   2.6927   2.9158   2.9528   3.4615   3.4615
     3.8733   3.8804   4.4142   4.4142   4.7196   4.7196   5.6822   5.7942
     7.2739   7.2739  16.3777  16.3777  16.3809  16.4024  17.1824  17.1824
    23.8451  24.2214  24.2913  24.2913  27.8429  27.8429  31.9287  31.9940
    34.2187  34.2187  35.6221  35.6221  39.3522  39.6401  40.4452  40.4452
    42.7802  42.7802  43.4847  43.7664

          k = 0.1026 0.1776 0.0962     band energies (ev):

  -114.1637-114.1637 -68.8279 -68.8279 -68.8184 -68.8184 -68.8182 -68.8182
    -8.3775  -8.3775   2.6916   2.6916   2.9340   2.9340   3.4613   3.4613
     3.8769   3.8769   4.4153   4.4153   4.7188   4.7188   5.7383   5.7383
     7.2762   7.2762  16.3809  16.3809  16.3919  16.3919  17.1749  17.1749
    24.0304  24.0304  24.2987  24.2987  27.8360  27.8360  31.9606  31.9606
    34.2214  34.2214  35.6166  35.6166  39.5054  39.5054  40.4873  40.4873
    42.7433  42.7433  43.7611  43.7611

     Writing output data file Zn2O2.save
 
     init_run     :      3.09s CPU      3.89s WALL (       1 calls)
     electrons    :    727.67s CPU    734.33s WALL (       1 calls)

     Called by init_run:
     wfcinit      :      0.00s CPU      0.00s WALL (       1 calls)
     potinit      :      0.40s CPU      0.46s WALL (       1 calls)

     Called by electrons:
     c_bands      :    727.57s CPU    734.22s WALL (       1 calls)
     v_of_rho     :      0.10s CPU      0.10s WALL (       1 calls)
     v_h          :      0.05s CPU      0.05s WALL (       1 calls)
     v_xc         :      0.05s CPU      0.05s WALL (       1 calls)

     Called by c_bands:
     init_us_2    :      0.06s CPU      0.08s WALL (      13 calls)
     cegterg      :    502.23s CPU    505.84s WALL (      23 calls)

     Called by sum_band:

     Called by *egterg:
     h_psi        :    440.82s CPU    442.08s WALL (     321 calls)
     g_psi        :      2.40s CPU      2.39s WALL (     285 calls)
     cdiaghg      :      8.65s CPU      8.49s WALL (     298 calls)
     cegterg:over :     35.38s CPU     35.07s WALL (     285 calls)
     cegterg:upda :     26.85s CPU     27.37s WALL (     285 calls)
     cegterg:last :     14.52s CPU     14.68s WALL (      62 calls)

     Called by h_psi:
     h_psi:vloc   :    433.94s CPU    435.05s WALL (     321 calls)
     h_psi:vnl    :      4.45s CPU      4.48s WALL (     321 calls)
     add_vuspsi   :      2.21s CPU      2.36s WALL (     321 calls)

     General routines
     calbec       :      2.24s CPU      2.12s WALL (     321 calls)
     fft          :      0.14s CPU      0.15s WALL (       4 calls)
     fftw         :    389.20s CPU    388.47s WALL (   20060 calls)
     davcio       :      0.00s CPU      0.35s WALL (      13 calls)
 
     Parallel routines
     fft_scatter  :     98.79s CPU     93.85s WALL (   20064 calls)
 
     PWSCF        : 12m13.21s CPU    12m56.11s WALL

 
   This run was terminated on:  17:25:43  26Jun2013            

=------------------------------------------------------------------------------=
   JOB DONE.
=------------------------------------------------------------------------------=
Application 2753398 resources: utime ~110298s, stime ~606s, Rss ~133628, inblocks ~856415, outblocks ~31508458
