TACC:  Starting up job 7666513 
TACC:  Starting parallel tasks... 

     Program PWSCF v.6.4 starts on  1May2021 at 15:17:56 

     This program is part of the open-source Quantum ESPRESSO suite
     for quantum simulation of materials; please cite
         "P. Giannozzi et al., J. Phys.:Condens. Matter 21 395502 (2009);
         "P. Giannozzi et al., J. Phys.:Condens. Matter 29 465901 (2017);
          URL http://www.quantum-espresso.org", 
     in publications or presentations arising from this work. More details at
     http://www.quantum-espresso.org/quote

     Parallel version (MPI), running on    64 processors

     MPI processes distributed on     1 nodes
     K-points division:     npool     =       4
     R & G space division:  proc/nbgrp/npool/nimage =      16
     Waiting for input...
     Reading input from standard input

     Current dimensions of program PWSCF are:
     Max number of different atomic species (ntypx) = 10
     Max number of k-points (npk) =  40000
     Max angular momentum in pseudopotentials (lmaxx) =  3

     Atomic positions and unit cell read from directory:
     ./cspbcl3.save/
 

     Subspace diagonalization in iterative solution of the eigenvalue problem:
     a serial algorithm will be used

 
     Parallelization info
     --------------------
     sticks:   dense  smooth     PW     G-vecs:    dense   smooth      PW
     Min          44      44     14                  889      889     162
     Max          46      46     15                  891      891     163
     Sum         717     717    233                14243    14243    2601
 


     bravais-lattice index     =            0
     lattice parameter (alat)  =      10.5806  a.u.
     unit-cell volume          =    1184.4808 (a.u.)^3
     number of atoms/cell      =            5
     number of atomic types    =            3
     number of electrons       =        44.00
     number of Kohn-Sham states=           44
     kinetic-energy cutoff     =      20.0000  Ry
     charge density cutoff     =      80.0000  Ry
     Exchange-correlation      = PBE ( 1  4  3  4 0 0)
     Non magnetic calculation with spin-orbit


     celldm(1)=  10.580577  celldm(2)=   0.000000  celldm(3)=   0.000000
     celldm(4)=   0.000000  celldm(5)=   0.000000  celldm(6)=   0.000000

     crystal axes: (cart. coord. in units of alat)
               a(1) = (   1.000000   0.000000   0.000000 )  
               a(2) = (   0.000000   1.000000   0.000000 )  
               a(3) = (   0.000000   0.000000   1.000000 )  

     reciprocal axes: (cart. coord. in units 2 pi/alat)
               b(1) = (  1.000000  0.000000  0.000000 )  
               b(2) = (  0.000000  1.000000  0.000000 )  
               b(3) = (  0.000000  0.000000  1.000000 )  


     PseudoPot. # 1 for Cs read from file:
     ../pseudopotentials/Cs.upf
     MD5 check sum: 0949d7fbeea01e664226101e754fa92a
     Pseudo is Norm-conserving + core correction, Zval =  9.0
     Generated using ONCVPSP code by D. R. Hamann
     Using radial grid of 2414 points, 14 beta functions with: 
                l(1) =   0
                l(2) =   0
                l(3) =   1
                l(4) =   1
                l(5) =   1
                l(6) =   1
                l(7) =   2
                l(8) =   2
                l(9) =   2
               l(10) =   2
               l(11) =   3
               l(12) =   3
               l(13) =   3
               l(14) =   3

     PseudoPot. # 2 for Pb read from file:
     ../pseudopotentials/Pb.upf
     MD5 check sum: 73abbbd201951038fc1bdacebad68d2f
     Pseudo is Norm-conserving + core correction, Zval = 14.0
     Generated using ONCVPSP code by D. R. Hamann
     Using radial grid of 1782 points, 10 beta functions with: 
                l(1) =   0
                l(2) =   0
                l(3) =   1
                l(4) =   1
                l(5) =   1
                l(6) =   1
                l(7) =   2
                l(8) =   2
                l(9) =   2
               l(10) =   2

     PseudoPot. # 3 for Cl read from file:
     ../pseudopotentials/Cl.upf
     MD5 check sum: b1ddb435c2952724bdf458cc656d2c80
     Pseudo is Norm-conserving + core correction, Zval =  7.0
     Generated using ONCVPSP code by D. R. Hamann
     Using radial grid of 1028 points, 10 beta functions with: 
                l(1) =   0
                l(2) =   0
                l(3) =   1
                l(4) =   1
                l(5) =   1
                l(6) =   1
                l(7) =   2
                l(8) =   2
                l(9) =   2
               l(10) =   2

     atomic species   valence    mass     pseudopotential
        Cs             9.00     1.00000     Cs( 1.00)
        Pb            14.00     1.00000     Pb( 1.00)
        Cl             7.00     1.00000     Cl( 1.00)

     48 Sym. Ops., with inversion, found


                                    s                        frac. trans.

      isym =  1     identity                                     

 cryst.   s( 1) = (     1          0          0      )
                  (     0          1          0      )
                  (     0          0          1      )

 cart.    s( 1) = (  1.0000000  0.0000000  0.0000000 )
                  (  0.0000000  1.0000000  0.0000000 )
                  (  0.0000000  0.0000000  1.0000000 )


      isym =  2     180 deg rotation - cart. axis [0,0,1]        

 cryst.   s( 2) = (    -1          0          0      )
                  (     0         -1          0      )
                  (     0          0          1      )

 cart.    s( 2) = ( -1.0000000  0.0000000  0.0000000 )
                  (  0.0000000 -1.0000000  0.0000000 )
                  (  0.0000000  0.0000000  1.0000000 )


      isym =  3     180 deg rotation - cart. axis [0,1,0]        

 cryst.   s( 3) = (    -1          0          0      )
                  (     0          1          0      )
                  (     0          0         -1      )

 cart.    s( 3) = ( -1.0000000  0.0000000  0.0000000 )
                  (  0.0000000  1.0000000  0.0000000 )
                  (  0.0000000  0.0000000 -1.0000000 )


      isym =  4     180 deg rotation - cart. axis [1,0,0]        

 cryst.   s( 4) = (     1          0          0      )
                  (     0         -1          0      )
                  (     0          0         -1      )

 cart.    s( 4) = (  1.0000000  0.0000000  0.0000000 )
                  (  0.0000000 -1.0000000  0.0000000 )
                  (  0.0000000  0.0000000 -1.0000000 )


      isym =  5     180 deg rotation - cart. axis [1,1,0]        

 cryst.   s( 5) = (     0          1          0      )
                  (     1          0          0      )
                  (     0          0         -1      )

 cart.    s( 5) = (  0.0000000  1.0000000  0.0000000 )
                  (  1.0000000  0.0000000  0.0000000 )
                  (  0.0000000  0.0000000 -1.0000000 )


      isym =  6     180 deg rotation - cart. axis [1,-1,0]       

 cryst.   s( 6) = (     0         -1          0      )
                  (    -1          0          0      )
                  (     0          0         -1      )

 cart.    s( 6) = (  0.0000000 -1.0000000  0.0000000 )
                  ( -1.0000000  0.0000000  0.0000000 )
                  (  0.0000000  0.0000000 -1.0000000 )


      isym =  7      90 deg rotation - cart. axis [0,0,-1]       

 cryst.   s( 7) = (     0         -1          0      )
                  (     1          0          0      )
                  (     0          0          1      )

 cart.    s( 7) = (  0.0000000  1.0000000  0.0000000 )
                  ( -1.0000000  0.0000000  0.0000000 )
                  (  0.0000000  0.0000000  1.0000000 )


      isym =  8      90 deg rotation - cart. axis [0,0,1]        

 cryst.   s( 8) = (     0          1          0      )
                  (    -1          0          0      )
                  (     0          0          1      )

 cart.    s( 8) = (  0.0000000 -1.0000000  0.0000000 )
                  (  1.0000000  0.0000000  0.0000000 )
                  (  0.0000000  0.0000000  1.0000000 )


      isym =  9     180 deg rotation - cart. axis [1,0,1]        

 cryst.   s( 9) = (     0          0          1      )
                  (     0         -1          0      )
                  (     1          0          0      )

 cart.    s( 9) = (  0.0000000  0.0000000  1.0000000 )
                  (  0.0000000 -1.0000000  0.0000000 )
                  (  1.0000000  0.0000000  0.0000000 )


      isym = 10     180 deg rotation - cart. axis [-1,0,1]       

 cryst.   s(10) = (     0          0         -1      )
                  (     0         -1          0      )
                  (    -1          0          0      )

 cart.    s(10) = (  0.0000000  0.0000000 -1.0000000 )
                  (  0.0000000 -1.0000000  0.0000000 )
                  ( -1.0000000  0.0000000  0.0000000 )


      isym = 11      90 deg rotation - cart. axis [0,1,0]        

 cryst.   s(11) = (     0          0         -1      )
                  (     0          1          0      )
                  (     1          0          0      )

 cart.    s(11) = (  0.0000000  0.0000000  1.0000000 )
                  (  0.0000000  1.0000000  0.0000000 )
                  ( -1.0000000  0.0000000  0.0000000 )


      isym = 12      90 deg rotation - cart. axis [0,-1,0]       

 cryst.   s(12) = (     0          0          1      )
                  (     0          1          0      )
                  (    -1          0          0      )

 cart.    s(12) = (  0.0000000  0.0000000 -1.0000000 )
                  (  0.0000000  1.0000000  0.0000000 )
                  (  1.0000000  0.0000000  0.0000000 )


      isym = 13     180 deg rotation - cart. axis [0,1,1]        

 cryst.   s(13) = (    -1          0          0      )
                  (     0          0          1      )
                  (     0          1          0      )

 cart.    s(13) = ( -1.0000000  0.0000000  0.0000000 )
                  (  0.0000000  0.0000000  1.0000000 )
                  (  0.0000000  1.0000000  0.0000000 )


      isym = 14     180 deg rotation - cart. axis [0,1,-1]       

 cryst.   s(14) = (    -1          0          0      )
                  (     0          0         -1      )
                  (     0         -1          0      )

 cart.    s(14) = ( -1.0000000  0.0000000  0.0000000 )
                  (  0.0000000  0.0000000 -1.0000000 )
                  (  0.0000000 -1.0000000  0.0000000 )


      isym = 15      90 deg rotation - cart. axis [-1,0,0]       

 cryst.   s(15) = (     1          0          0      )
                  (     0          0         -1      )
                  (     0          1          0      )

 cart.    s(15) = (  1.0000000  0.0000000  0.0000000 )
                  (  0.0000000  0.0000000  1.0000000 )
                  (  0.0000000 -1.0000000  0.0000000 )


      isym = 16      90 deg rotation - cart. axis [1,0,0]        

 cryst.   s(16) = (     1          0          0      )
                  (     0          0          1      )
                  (     0         -1          0      )

 cart.    s(16) = (  1.0000000  0.0000000  0.0000000 )
                  (  0.0000000  0.0000000 -1.0000000 )
                  (  0.0000000  1.0000000  0.0000000 )


      isym = 17     120 deg rotation - cart. axis [-1,-1,-1]     

 cryst.   s(17) = (     0          0          1      )
                  (     1          0          0      )
                  (     0          1          0      )

 cart.    s(17) = (  0.0000000  1.0000000  0.0000000 )
                  (  0.0000000  0.0000000  1.0000000 )
                  (  1.0000000  0.0000000  0.0000000 )


      isym = 18     120 deg rotation - cart. axis [-1,1,1]       

 cryst.   s(18) = (     0          0         -1      )
                  (    -1          0          0      )
                  (     0          1          0      )

 cart.    s(18) = (  0.0000000 -1.0000000  0.0000000 )
                  (  0.0000000  0.0000000  1.0000000 )
                  ( -1.0000000  0.0000000  0.0000000 )


      isym = 19     120 deg rotation - cart. axis [1,1,-1]       

 cryst.   s(19) = (     0          0         -1      )
                  (     1          0          0      )
                  (     0         -1          0      )

 cart.    s(19) = (  0.0000000  1.0000000  0.0000000 )
                  (  0.0000000  0.0000000 -1.0000000 )
                  ( -1.0000000  0.0000000  0.0000000 )


      isym = 20     120 deg rotation - cart. axis [1,-1,1]       

 cryst.   s(20) = (     0          0          1      )
                  (    -1          0          0      )
                  (     0         -1          0      )

 cart.    s(20) = (  0.0000000 -1.0000000  0.0000000 )
                  (  0.0000000  0.0000000 -1.0000000 )
                  (  1.0000000  0.0000000  0.0000000 )


      isym = 21     120 deg rotation - cart. axis [1,1,1]        

 cryst.   s(21) = (     0          1          0      )
                  (     0          0          1      )
                  (     1          0          0      )

 cart.    s(21) = (  0.0000000  0.0000000  1.0000000 )
                  (  1.0000000  0.0000000  0.0000000 )
                  (  0.0000000  1.0000000  0.0000000 )


      isym = 22     120 deg rotation - cart. axis [-1,1,-1]      

 cryst.   s(22) = (     0         -1          0      )
                  (     0          0         -1      )
                  (     1          0          0      )

 cart.    s(22) = (  0.0000000  0.0000000  1.0000000 )
                  ( -1.0000000  0.0000000  0.0000000 )
                  (  0.0000000 -1.0000000  0.0000000 )


      isym = 23     120 deg rotation - cart. axis [1,-1,-1]      

 cryst.   s(23) = (     0         -1          0      )
                  (     0          0          1      )
                  (    -1          0          0      )

 cart.    s(23) = (  0.0000000  0.0000000 -1.0000000 )
                  ( -1.0000000  0.0000000  0.0000000 )
                  (  0.0000000  1.0000000  0.0000000 )


      isym = 24     120 deg rotation - cart. axis [-1,-1,1]      

 cryst.   s(24) = (     0          1          0      )
                  (     0          0         -1      )
                  (    -1          0          0      )

 cart.    s(24) = (  0.0000000  0.0000000 -1.0000000 )
                  (  1.0000000  0.0000000  0.0000000 )
                  (  0.0000000 -1.0000000  0.0000000 )


      isym = 25     inversion                                    

 cryst.   s(25) = (    -1          0          0      )
                  (     0         -1          0      )
                  (     0          0         -1      )

 cart.    s(25) = ( -1.0000000  0.0000000  0.0000000 )
                  (  0.0000000 -1.0000000  0.0000000 )
                  (  0.0000000  0.0000000 -1.0000000 )


      isym = 26     inv. 180 deg rotation - cart. axis [0,0,1]   

 cryst.   s(26) = (     1          0          0      )
                  (     0          1          0      )
                  (     0          0         -1      )

 cart.    s(26) = (  1.0000000  0.0000000  0.0000000 )
                  (  0.0000000  1.0000000  0.0000000 )
                  (  0.0000000  0.0000000 -1.0000000 )


      isym = 27     inv. 180 deg rotation - cart. axis [0,1,0]   

 cryst.   s(27) = (     1          0          0      )
                  (     0         -1          0      )
                  (     0          0          1      )

 cart.    s(27) = (  1.0000000  0.0000000  0.0000000 )
                  (  0.0000000 -1.0000000  0.0000000 )
                  (  0.0000000  0.0000000  1.0000000 )


      isym = 28     inv. 180 deg rotation - cart. axis [1,0,0]   

 cryst.   s(28) = (    -1          0          0      )
                  (     0          1          0      )
                  (     0          0          1      )

 cart.    s(28) = ( -1.0000000  0.0000000  0.0000000 )
                  (  0.0000000  1.0000000  0.0000000 )
                  (  0.0000000  0.0000000  1.0000000 )


      isym = 29     inv. 180 deg rotation - cart. axis [1,1,0]   

 cryst.   s(29) = (     0         -1          0      )
                  (    -1          0          0      )
                  (     0          0          1      )

 cart.    s(29) = (  0.0000000 -1.0000000  0.0000000 )
                  ( -1.0000000  0.0000000  0.0000000 )
                  (  0.0000000  0.0000000  1.0000000 )


      isym = 30     inv. 180 deg rotation - cart. axis [1,-1,0]  

 cryst.   s(30) = (     0          1          0      )
                  (     1          0          0      )
                  (     0          0          1      )

 cart.    s(30) = (  0.0000000  1.0000000  0.0000000 )
                  (  1.0000000  0.0000000  0.0000000 )
                  (  0.0000000  0.0000000  1.0000000 )


      isym = 31     inv.  90 deg rotation - cart. axis [0,0,-1]  

 cryst.   s(31) = (     0          1          0      )
                  (    -1          0          0      )
                  (     0          0         -1      )

 cart.    s(31) = (  0.0000000 -1.0000000  0.0000000 )
                  (  1.0000000  0.0000000  0.0000000 )
                  (  0.0000000  0.0000000 -1.0000000 )


      isym = 32     inv.  90 deg rotation - cart. axis [0,0,1]   

 cryst.   s(32) = (     0         -1          0      )
                  (     1          0          0      )
                  (     0          0         -1      )

 cart.    s(32) = (  0.0000000  1.0000000  0.0000000 )
                  ( -1.0000000  0.0000000  0.0000000 )
                  (  0.0000000  0.0000000 -1.0000000 )


      isym = 33     inv. 180 deg rotation - cart. axis [1,0,1]   

 cryst.   s(33) = (     0          0         -1      )
                  (     0          1          0      )
                  (    -1          0          0      )

 cart.    s(33) = (  0.0000000  0.0000000 -1.0000000 )
                  (  0.0000000  1.0000000  0.0000000 )
                  ( -1.0000000  0.0000000  0.0000000 )


      isym = 34     inv. 180 deg rotation - cart. axis [-1,0,1]  

 cryst.   s(34) = (     0          0          1      )
                  (     0          1          0      )
                  (     1          0          0      )

 cart.    s(34) = (  0.0000000  0.0000000  1.0000000 )
                  (  0.0000000  1.0000000  0.0000000 )
                  (  1.0000000  0.0000000  0.0000000 )


      isym = 35     inv.  90 deg rotation - cart. axis [0,1,0]   

 cryst.   s(35) = (     0          0          1      )
                  (     0         -1          0      )
                  (    -1          0          0      )

 cart.    s(35) = (  0.0000000  0.0000000 -1.0000000 )
                  (  0.0000000 -1.0000000  0.0000000 )
                  (  1.0000000  0.0000000  0.0000000 )


      isym = 36     inv.  90 deg rotation - cart. axis [0,-1,0]  

 cryst.   s(36) = (     0          0         -1      )
                  (     0         -1          0      )
                  (     1          0          0      )

 cart.    s(36) = (  0.0000000  0.0000000  1.0000000 )
                  (  0.0000000 -1.0000000  0.0000000 )
                  ( -1.0000000  0.0000000  0.0000000 )


      isym = 37     inv. 180 deg rotation - cart. axis [0,1,1]   

 cryst.   s(37) = (     1          0          0      )
                  (     0          0         -1      )
                  (     0         -1          0      )

 cart.    s(37) = (  1.0000000  0.0000000  0.0000000 )
                  (  0.0000000  0.0000000 -1.0000000 )
                  (  0.0000000 -1.0000000  0.0000000 )


      isym = 38     inv. 180 deg rotation - cart. axis [0,1,-1]  

 cryst.   s(38) = (     1          0          0      )
                  (     0          0          1      )
                  (     0          1          0      )

 cart.    s(38) = (  1.0000000  0.0000000  0.0000000 )
                  (  0.0000000  0.0000000  1.0000000 )
                  (  0.0000000  1.0000000  0.0000000 )


      isym = 39     inv.  90 deg rotation - cart. axis [-1,0,0]  

 cryst.   s(39) = (    -1          0          0      )
                  (     0          0          1      )
                  (     0         -1          0      )

 cart.    s(39) = ( -1.0000000  0.0000000  0.0000000 )
                  (  0.0000000  0.0000000 -1.0000000 )
                  (  0.0000000  1.0000000  0.0000000 )


      isym = 40     inv.  90 deg rotation - cart. axis [1,0,0]   

 cryst.   s(40) = (    -1          0          0      )
                  (     0          0         -1      )
                  (     0          1          0      )

 cart.    s(40) = ( -1.0000000  0.0000000  0.0000000 )
                  (  0.0000000  0.0000000  1.0000000 )
                  (  0.0000000 -1.0000000  0.0000000 )


      isym = 41     inv. 120 deg rotation - cart. axis [-1,-1,-1]

 cryst.   s(41) = (     0          0         -1      )
                  (    -1          0          0      )
                  (     0         -1          0      )

 cart.    s(41) = (  0.0000000 -1.0000000  0.0000000 )
                  (  0.0000000  0.0000000 -1.0000000 )
                  ( -1.0000000  0.0000000  0.0000000 )


      isym = 42     inv. 120 deg rotation - cart. axis [-1,1,1]  

 cryst.   s(42) = (     0          0          1      )
                  (     1          0          0      )
                  (     0         -1          0      )

 cart.    s(42) = (  0.0000000  1.0000000  0.0000000 )
                  (  0.0000000  0.0000000 -1.0000000 )
                  (  1.0000000  0.0000000  0.0000000 )


      isym = 43     inv. 120 deg rotation - cart. axis [1,1,-1]  

 cryst.   s(43) = (     0          0          1      )
                  (    -1          0          0      )
                  (     0          1          0      )

 cart.    s(43) = (  0.0000000 -1.0000000  0.0000000 )
                  (  0.0000000  0.0000000  1.0000000 )
                  (  1.0000000  0.0000000  0.0000000 )


      isym = 44     inv. 120 deg rotation - cart. axis [1,-1,1]  

 cryst.   s(44) = (     0          0         -1      )
                  (     1          0          0      )
                  (     0          1          0      )

 cart.    s(44) = (  0.0000000  1.0000000  0.0000000 )
                  (  0.0000000  0.0000000  1.0000000 )
                  ( -1.0000000  0.0000000  0.0000000 )


      isym = 45     inv. 120 deg rotation - cart. axis [1,1,1]   

 cryst.   s(45) = (     0         -1          0      )
                  (     0          0         -1      )
                  (    -1          0          0      )

 cart.    s(45) = (  0.0000000  0.0000000 -1.0000000 )
                  ( -1.0000000  0.0000000  0.0000000 )
                  (  0.0000000 -1.0000000  0.0000000 )


      isym = 46     inv. 120 deg rotation - cart. axis [-1,1,-1] 

 cryst.   s(46) = (     0          1          0      )
                  (     0          0          1      )
                  (    -1          0          0      )

 cart.    s(46) = (  0.0000000  0.0000000 -1.0000000 )
                  (  1.0000000  0.0000000  0.0000000 )
                  (  0.0000000  1.0000000  0.0000000 )


      isym = 47     inv. 120 deg rotation - cart. axis [1,-1,-1] 

 cryst.   s(47) = (     0          1          0      )
                  (     0          0         -1      )
                  (     1          0          0      )

 cart.    s(47) = (  0.0000000  0.0000000  1.0000000 )
                  (  1.0000000  0.0000000  0.0000000 )
                  (  0.0000000 -1.0000000  0.0000000 )


      isym = 48     inv. 120 deg rotation - cart. axis [-1,-1,1] 

 cryst.   s(48) = (     0         -1          0      )
                  (     0          0          1      )
                  (     1          0          0      )

 cart.    s(48) = (  0.0000000  0.0000000  1.0000000 )
                  ( -1.0000000  0.0000000  0.0000000 )
                  (  0.0000000  1.0000000  0.0000000 )


   Cartesian axes

     site n.     atom                  positions (alat units)
         1           Cs  tau(   1) = (   0.5000000   0.5000000   0.5000000  )
         2           Pb  tau(   2) = (   0.0000000   0.0000000   0.0000000  )
         3           Cl  tau(   3) = (   0.5000000   0.0000000   0.0000000  )
         4           Cl  tau(   4) = (   0.0000000   0.5000000   0.0000000  )
         5           Cl  tau(   5) = (   0.0000000   0.0000000   0.5000000  )

   Crystallographic axes

     site n.     atom                  positions (cryst. coord.)
         1           Cs  tau(   1) = (  0.5000000  0.5000000  0.5000000  )
         2           Pb  tau(   2) = (  0.0000000  0.0000000  0.0000000  )
         3           Cl  tau(   3) = (  0.5000000  0.0000000  0.0000000  )
         4           Cl  tau(   4) = (  0.0000000  0.5000000  0.0000000  )
         5           Cl  tau(   5) = (  0.0000000  0.0000000  0.5000000  )

     number of k points=    12
                       cart. coord. in units 2pi/alat
        k(    1) = (   0.1260000   0.1250000   0.1250000), wk =   0.0625000
        k(    2) = (   0.1260000   0.1250000   0.3750000), wk =   0.1250000
        k(    3) = (   0.1260000   0.3750000   0.3750000), wk =   0.0625000
        k(    4) = (   0.3760000   0.1250000   0.1250000), wk =   0.0625000
        k(    5) = (   0.3760000   0.1250000   0.3750000), wk =   0.1250000
        k(    6) = (   0.3760000   0.3750000   0.3750000), wk =   0.0625000
        k(    7) = (   0.6260000   0.1250000   0.1250000), wk =   0.0625000
        k(    8) = (   0.6260000   0.1250000   0.3750000), wk =   0.1250000
        k(    9) = (   0.6260000   0.3750000   0.3750000), wk =   0.0625000
        k(   10) = (   0.8760000   0.1250000   0.1250000), wk =   0.0625000
        k(   11) = (   0.8760000   0.1250000   0.3750000), wk =   0.1250000
        k(   12) = (   0.8760000   0.3750000   0.3750000), wk =   0.0625000

                       cryst. coord.
        k(    1) = (   0.1260000   0.1250000   0.1250000), wk =   0.0625000
        k(    2) = (   0.1260000   0.1250000   0.3750000), wk =   0.1250000
        k(    3) = (   0.1260000   0.3750000   0.3750000), wk =   0.0625000
        k(    4) = (   0.3760000   0.1250000   0.1250000), wk =   0.0625000
        k(    5) = (   0.3760000   0.1250000   0.3750000), wk =   0.1250000
        k(    6) = (   0.3760000   0.3750000   0.3750000), wk =   0.0625000
        k(    7) = (   0.6260000   0.1250000   0.1250000), wk =   0.0625000
        k(    8) = (   0.6260000   0.1250000   0.3750000), wk =   0.1250000
        k(    9) = (   0.6260000   0.3750000   0.3750000), wk =   0.0625000
        k(   10) = (   0.8760000   0.1250000   0.1250000), wk =   0.0625000
        k(   11) = (   0.8760000   0.1250000   0.3750000), wk =   0.1250000
        k(   12) = (   0.8760000   0.3750000   0.3750000), wk =   0.0625000

     Dense  grid:    14243 G-vectors     FFT dimensions: (  32,  32,  32)

     Dynamical RAM for                 wfc:       0.15 MB

     Dynamical RAM for     wfc (w. buffer):       0.15 MB

     Dynamical RAM for           str. fact:       0.04 MB

     Dynamical RAM for           local pot:       0.00 MB

     Dynamical RAM for          nlocal pot:       0.34 MB

     Dynamical RAM for                qrad:      25.40 MB

     Dynamical RAM for          rho,v,vnew:       0.35 MB

     Dynamical RAM for           G-vectors:       0.06 MB

     Dynamical RAM for          h,s,v(r/c):       1.42 MB

     Dynamical RAM for          <psi|beta>:       0.27 MB

     Dynamical RAM for                 psi:       0.60 MB

     Dynamical RAM for                hpsi:       0.60 MB

     Dynamical RAM for      wfcinit/wfcrot:       0.33 MB

     Estimated static dynamical RAM per process >      26.52 MB

     Estimated max dynamical RAM per process >      29.39 MB

     Estimated total dynamical RAM >       1.84 GB

     Check: negative core charge=   -0.000022

     The potential is recalculated from file :
     ./cspbcl3.save/charge-density


     negative rho (up, down):  2.734E-03 0.000E+00
     Starting wfcs are   52 randomized atomic wfcs

     Band Structure Calculation
     Davidson diagonalization with overlap

     Computing kpt #:     1
     total cpu time spent up to now is        6.6 secs

     Computing kpt #:     2
     total cpu time spent up to now is        7.4 secs

     Computing kpt #:     3
     total cpu time spent up to now is        8.2 secs

     ethr =  2.27E-09,  avg # of iterations = 11.8

     total cpu time spent up to now is        8.2 secs

     End of band structure calculation

          k = 0.1260 0.1250 0.1250 (  1806 PWs)   bands (ev):

   -17.0994 -17.0994 -10.4873 -10.4873 -10.3050 -10.3050 -10.3013 -10.3013
    -8.7205  -8.7205  -8.7167  -8.7167  -7.0764  -7.0764  -7.0104  -7.0104
    -7.0064  -7.0064  -4.9047  -4.9047  -3.3552  -3.3552  -3.3414  -3.3414
    -2.8417  -2.8417  -0.3597  -0.3597  -0.0771  -0.0771   0.2698   0.2698
     1.5049   1.5049   1.5287   1.5287   1.6275   1.6275   1.6814   1.6814
     1.7590   1.7590   1.7937   1.7937

          k = 0.1260 0.1250 0.3750 (  1794 PWs)   bands (ev):

   -17.0976 -17.0976 -10.4469 -10.4469 -10.2699 -10.2699 -10.1221 -10.1221
    -8.8000  -8.8000  -8.6624  -8.6624  -7.1130  -7.1130  -7.0510  -7.0510
    -6.9322  -6.9322  -4.8969  -4.8969  -3.3956  -3.3956  -3.3428  -3.3428
    -3.3260  -3.3260  -0.1972  -0.1972   0.0982   0.0982   0.9797   0.9797
     1.3619   1.3619   1.5114   1.5114   1.6326   1.6326   1.6909   1.6909
     1.7467   1.7467   2.4892   2.4892

          k = 0.1260 0.3750 0.3750 (  1784 PWs)   bands (ev):

   -17.0960 -17.0960 -10.3555 -10.3555 -10.1370 -10.1370 -10.1031 -10.1031
    -8.8130  -8.8130  -8.6897  -8.6897  -7.1220  -7.1220  -7.0280  -7.0280
    -6.9998  -6.9998  -4.9037  -4.9037  -3.9310  -3.9310  -3.3673  -3.3673
    -3.3344  -3.3344   0.0198   0.0198   0.9330   0.9330   1.1432   1.1432
     1.2801   1.2801   1.4657   1.4657   1.6347   1.6347   1.7802   1.7802
     1.9704   1.9704   3.0162   3.0162

          k = 0.3760 0.1250 0.1250 (  1794 PWs)   bands (ev):

   -17.0976 -17.0976 -10.4472 -10.4472 -10.2701 -10.2701 -10.1214 -10.1214
    -8.8004  -8.8004  -8.6622  -8.6622  -7.1133  -7.1133  -7.0513  -7.0513
    -6.9318  -6.9318  -4.8968  -4.8968  -3.3945  -3.3945  -3.3427  -3.3427
    -3.3260  -3.3260  -0.1992  -0.1992   0.0957   0.0957   0.9806   0.9806
     1.3621   1.3621   1.5122   1.5122   1.6319   1.6319   1.6903   1.6903
     1.7460   1.7460   2.4938   2.4938

          k = 0.3760 0.1250 0.3750 (  1784 PWs)   bands (ev):

   -17.0960 -17.0960 -10.3559 -10.3559 -10.1367 -10.1367 -10.1027 -10.1027
    -8.8133  -8.8133  -8.6895  -8.6895  -7.1223  -7.1223  -7.0279  -7.0279
    -6.9997  -6.9997  -4.9036  -4.9036  -3.9299  -3.9299  -3.3672  -3.3672
    -3.3343  -3.3343   0.0155   0.0155   0.9326   0.9326   1.1449   1.1449
     1.2808   1.2808   1.4666   1.4666   1.6332   1.6332   1.7797   1.7797
     1.9708   1.9708   3.0198   3.0198

          k = 0.3760 0.3750 0.3750 (  1790 PWs)   bands (ev):

   -17.0950 -17.0950 -10.1564 -10.1564 -10.1206 -10.1206 -10.1109 -10.1109
    -8.9130  -8.9130  -8.8106  -8.8106  -7.1990  -7.1990  -7.1342  -7.1342
    -7.0798  -7.0798  -4.9271  -4.9271  -4.4787  -4.4787  -3.4016  -3.4016
    -3.3829  -3.3829   1.0364   1.0364   1.1336   1.1336   1.1379   1.1379
     1.3799   1.3799   1.4670   1.4670   1.9206   1.9206   1.9879   1.9879
     1.9897   1.9897   3.4366   3.4366

          k = 0.6260 0.1250 0.1250 (  1794 PWs)   bands (ev):

   -17.0976 -17.0976 -10.4473 -10.4473 -10.2701 -10.2701 -10.1228 -10.1228
    -8.7993  -8.7993  -8.6621  -8.6621  -7.1125  -7.1125  -7.0506  -7.0506
    -6.9318  -6.9318  -4.8969  -4.8969  -3.3922  -3.3922  -3.3428  -3.3428
    -3.3259  -3.3259  -0.1997  -0.1997   0.0951   0.0951   0.9791   0.9791
     1.3628   1.3628   1.5116   1.5116   1.6324   1.6324   1.6906   1.6906
     1.7462   1.7462   2.4835   2.4835

          k = 0.6260 0.1250 0.3750 (  1784 PWs)   bands (ev):

   -17.0960 -17.0960 -10.3561 -10.3561 -10.1374 -10.1374 -10.1034 -10.1034
    -8.8125  -8.8125  -8.6891  -8.6891  -7.1217  -7.1217  -7.0276  -7.0276
    -6.9993  -6.9993  -4.9036  -4.9036  -3.9274  -3.9274  -3.3671  -3.3671
    -3.3342  -3.3342   0.0148   0.0148   0.9327   0.9327   1.1416   1.1416
     1.2807   1.2807   1.4653   1.4653   1.6334   1.6334   1.7792   1.7792
     1.9699   1.9699   3.0119   3.0119

          k = 0.6260 0.3750 0.3750 (  1790 PWs)   bands (ev):

   -17.0950 -17.0950 -10.1571 -10.1571 -10.1210 -10.1210 -10.1114 -10.1114
    -8.9125  -8.9125  -8.8100  -8.8100  -7.1987  -7.1987  -7.1336  -7.1336
    -7.0796  -7.0796  -4.9270  -4.9270  -4.4761  -4.4761  -3.4014  -3.4014
    -3.3826  -3.3826   1.0356   1.0356   1.1333   1.1333   1.1380   1.1380
     1.3760   1.3760   1.4634   1.4634   1.9199   1.9199   1.9872   1.9872
     1.9891   1.9891   3.4299   3.4299

          k = 0.8760 0.1250 0.1250 (  1806 PWs)   bands (ev):

   -17.0995 -17.0995 -10.4879 -10.4879 -10.3053 -10.3053 -10.3017 -10.3017
    -8.7202  -8.7202  -8.7163  -8.7163  -7.0764  -7.0764  -7.0098  -7.0098
    -7.0059  -7.0059  -4.9047  -4.9047  -3.3552  -3.3552  -3.3415  -3.3415
    -2.8365  -2.8365  -0.3627  -0.3627  -0.0797  -0.0797   0.2649   0.2649
     1.5058   1.5058   1.5296   1.5296   1.6272   1.6272   1.6809   1.6809
     1.7588   1.7588   1.7935   1.7935

          k = 0.8760 0.1250 0.3750 (  1794 PWs)   bands (ev):

   -17.0976 -17.0976 -10.4476 -10.4476 -10.2703 -10.2703 -10.1221 -10.1221
    -8.7997  -8.7997  -8.6619  -8.6619  -7.1128  -7.1128  -7.0508  -7.0508
    -6.9313  -6.9313  -4.8968  -4.8968  -3.3911  -3.3911  -3.3426  -3.3426
    -3.3259  -3.3259  -0.2017  -0.2017   0.0927   0.0927   0.9799   0.9799
     1.3630   1.3630   1.5124   1.5124   1.6318   1.6318   1.6900   1.6900
     1.7455   1.7455   2.4882   2.4882

          k = 0.8760 0.3750 0.3750 (  1784 PWs)   bands (ev):

   -17.0960 -17.0960 -10.3566 -10.3566 -10.1371 -10.1371 -10.1031 -10.1031
    -8.8129  -8.8129  -8.6889  -8.6889  -7.1220  -7.1220  -7.0274  -7.0274
    -6.9992  -6.9992  -4.9035  -4.9035  -3.9264  -3.9264  -3.3670  -3.3670
    -3.3341  -3.3341   0.0106   0.0106   0.9323   0.9323   1.1433   1.1433
     1.2815   1.2815   1.4662   1.4662   1.6318   1.6318   1.7787   1.7787
     1.9703   1.9703   3.0155   3.0155

     Writing output data file cspbcl3.save/
 
     init_run     :      0.19s CPU      1.38s WALL (       1 calls)
     electrons    :      2.16s CPU      2.43s WALL (       1 calls)

     Called by init_run:
     wfcinit      :      0.00s CPU      0.06s WALL (       1 calls)
     wfcinit:atom :      0.00s CPU      0.01s WALL (       3 calls)
     wfcinit:wfcr :      0.17s CPU      0.25s WALL (       3 calls)
     potinit      :      0.02s CPU      0.11s WALL (       1 calls)
     hinit0       :      0.15s CPU      1.10s WALL (       1 calls)

     Called by electrons:
     c_bands      :      2.15s CPU      2.42s WALL (       1 calls)
     v_of_rho     :      0.01s CPU      0.04s WALL (       1 calls)
     v_h          :      0.00s CPU      0.00s WALL (       1 calls)
     v_xc         :      0.01s CPU      0.03s WALL (       1 calls)

     Called by c_bands:
     init_us_2    :      0.00s CPU      0.01s WALL (       3 calls)
     cegterg      :      1.84s CPU      2.00s WALL (       3 calls)

     Called by sum_band:

     Called by *egterg:
     h_psi        :      1.24s CPU      1.41s WALL (      39 calls)
     g_psi        :      0.01s CPU      0.01s WALL (      33 calls)
     cdiaghg      :      0.63s CPU      0.66s WALL (      36 calls)
     cegterg:over :      0.07s CPU      0.08s WALL (      33 calls)
     cegterg:upda :      0.02s CPU      0.03s WALL (      33 calls)
     cegterg:last :      0.01s CPU      0.01s WALL (       9 calls)

     Called by h_psi:
     h_psi:pot    :      1.23s CPU      1.41s WALL (      39 calls)
     h_psi:calbec :      0.06s CPU      0.07s WALL (      39 calls)
     vloc_psi     :      0.89s CPU      1.03s WALL (      39 calls)
     add_vuspsi   :      0.29s CPU      0.30s WALL (      39 calls)

     General routines
     calbec       :      0.05s CPU      0.07s WALL (      39 calls)
     fft          :      0.05s CPU      0.95s WALL (      14 calls)
     fftw         :      0.79s CPU      0.92s WALL (    5368 calls)
     davcio       :      0.00s CPU      0.01s WALL (       6 calls)
 
     Parallel routines
     fft_scatt_xy :      0.08s CPU      0.09s WALL (    5382 calls)
     fft_scatt_yz :      0.44s CPU      0.51s WALL (    5382 calls)
 
     PWSCF        :      6.22s CPU      9.01s WALL

 
   This run was terminated on:  15:18: 5   1May2021            

=------------------------------------------------------------------------------=
   JOB DONE.
=------------------------------------------------------------------------------=
TACC:  Shutdown complete. Exiting. 
