
     Program PWSCF v.5.0.2 (svn rev. 9656) starts on 26Jun2013 at 22:54:40 

     This program is part of the open-source Quantum ESPRESSO suite
     for quantum simulation of materials; please cite
         "P. Giannozzi et al., J. Phys.:Condens. Matter 21 395502 (2009);
          URL http://www.quantum-espresso.org", 
     in publications or presentations arising from this work. More details at
     http://www.quantum-espresso.org/quote.php

     Parallel version (MPI), running on    64 processors
     R & G space division:  proc/nbgrp/npool/nimage =      64

     Current dimensions of program PWSCF are:
     Max number of different atomic species (ntypx) = 10
     Max number of k-points (npk) =  40000
     Max angular momentum in pseudopotentials (lmaxx) =  3
     Waiting for input...
     Reading input from standard input

     Atomic positions and unit cell read from directory:
     ./Zn2O2.save/
 

     Subspace diagonalization in iterative solution of the eigenvalue problem:
     scalapack distributed-memory algorithm (size of sub-group:  5*  5 procs)


   Info: using nr1, nr2, nr3 values from input
 
     Parallelization info
     --------------------
     sticks:   dense  smooth     PW     G-vecs:    dense   smooth      PW
     Min          64      64     17                 5414     5414     745
     Max          65      65     18                 5423     5423     750
     Sum        4153    4153   1111               346889   346889   47831
 


     bravais-lattice index     =            0
     lattice parameter (alat)  =       1.8897  a.u.
     unit-cell volume          =     320.9943 (a.u.)^3
     number of atoms/cell      =            4
     number of atomic types    =            2
     number of electrons       =        52.00
     number of Kohn-Sham states=           26
     kinetic-energy cutoff     =     400.0000  Ry
     charge density cutoff     =    1600.0000  Ry
     Exchange-correlation      = SLA+PW ( 1 4 0 0 0)
     EXX-fraction              =        0.00

     celldm(1)=   1.889726  celldm(2)=   0.000000  celldm(3)=   0.000000
     celldm(4)=   0.000000  celldm(5)=   0.000000  celldm(6)=   0.000000

     crystal axes: (cart. coord. in units of alat)
               a(1) = (   3.250000   0.000000   0.000000 )  
               a(2) = (  -1.625000   2.814583   0.000000 )  
               a(3) = (   0.000000   0.000000   5.200000 )  

     reciprocal axes: (cart. coord. in units 2 pi/alat)
               b(1) = (  0.307692  0.177646  0.000000 )  
               b(2) = (  0.000000  0.355292  0.000000 )  
               b(3) = (  0.000000  0.000000  0.192308 )  


     PseudoPot. # 1 for Zn read from file:
     ../../0_pp/Zn.pw-spn-nc.UPF
     MD5 check sum: 9a837cc8ef69fdaee1504d3748345681
     Pseudo is Norm-conserving + core correction, Zval = 20.0
     Generated using "atomic" code by A. Dal Corso  v.5.0.2 svn rev. 9656
     Using radial grid of 1201 points,  2 beta functions with: 
                l(1) =   0
                l(2) =   1

     PseudoPot. # 2 for  O read from file:
     ../../0_pp/O.pw-n-nc.UPF
     MD5 check sum: 22ead4914353326b5879bd0c3df232e0
     Pseudo is Norm-conserving + core correction, Zval =  6.0
     Generated using "atomic" code by A. Dal Corso  v.5.0.2 svn rev. 9656
     Using radial grid of 1095 points,  1 beta functions with: 
                l(1) =   0

     atomic species   valence    mass     pseudopotential
        Zn            20.00    65.38000     Zn( 1.00)
        O              6.00    15.99900      O( 1.00)

     12 Sym. Ops. (no inversion) found ( 6 have fractional translation)


                                    s                        frac. trans.

      isym =  1     identity                                     

 cryst.   s( 1) = (     1          0          0      )
                  (     0          1          0      )
                  (     0          0          1      )

 cart.    s( 1) = (  1.0000000  0.0000000  0.0000000 )
                  (  0.0000000  1.0000000  0.0000000 )
                  (  0.0000000  0.0000000  1.0000000 )


      isym =  2     180 deg rotation - cart. axis [0,0,1]        

 cryst.   s( 2) = (    -1          0          0      )    f =(  0.0000000 )
                  (     0         -1          0      )       (  0.0000000 )
                  (     0          0          1      )       ( -0.5000000 )

 cart.    s( 2) = ( -1.0000000  0.0000000  0.0000000 )    f =(  0.0000000 )
                  (  0.0000000 -1.0000000  0.0000000 )       (  0.0000000 )
                  (  0.0000000  0.0000000  1.0000000 )       ( -2.6000000 )


      isym =  3      60 deg rotation - cryst. axis [0,0,1]       

 cryst.   s( 3) = (     1          1          0      )    f =(  0.0000000 )
                  (    -1          0          0      )       (  0.0000000 )
                  (     0          0          1      )       ( -0.5000000 )

 cart.    s( 3) = (  0.5000000 -0.8660254  0.0000000 )    f =(  0.0000000 )
                  (  0.8660254  0.5000000  0.0000000 )       (  0.0000000 )
                  (  0.0000000  0.0000000  1.0000000 )       ( -2.6000000 )


      isym =  4      60 deg rotation - cryst. axis [0,0,-1]      

 cryst.   s( 4) = (     0         -1          0      )    f =(  0.0000000 )
                  (     1          1          0      )       (  0.0000000 )
                  (     0          0          1      )       ( -0.5000000 )

 cart.    s( 4) = (  0.5000000  0.8660254  0.0000000 )    f =(  0.0000000 )
                  ( -0.8660254  0.5000000  0.0000000 )       (  0.0000000 )
                  (  0.0000000  0.0000000  1.0000000 )       ( -2.6000000 )


      isym =  5     120 deg rotation - cryst. axis [0,0,1]       

 cryst.   s( 5) = (     0          1          0      )
                  (    -1         -1          0      )
                  (     0          0          1      )

 cart.    s( 5) = ( -0.5000000 -0.8660254  0.0000000 )
                  (  0.8660254 -0.5000000  0.0000000 )
                  (  0.0000000  0.0000000  1.0000000 )


      isym =  6     120 deg rotation - cryst. axis [0,0,-1]      

 cryst.   s( 6) = (    -1         -1          0      )
                  (     1          0          0      )
                  (     0          0          1      )

 cart.    s( 6) = ( -0.5000000  0.8660254  0.0000000 )
                  ( -0.8660254 -0.5000000  0.0000000 )
                  (  0.0000000  0.0000000  1.0000000 )


      isym =  7     inv. 180 deg rotation - cart. axis [0,1,0]   

 cryst.   s( 7) = (     1          0          0      )    f =(  0.0000000 )
                  (    -1         -1          0      )       (  0.0000000 )
                  (     0          0          1      )       ( -0.5000000 )

 cart.    s( 7) = (  1.0000000  0.0000000  0.0000000 )    f =(  0.0000000 )
                  (  0.0000000 -1.0000000  0.0000000 )       (  0.0000000 )
                  (  0.0000000  0.0000000  1.0000000 )       ( -2.6000000 )


      isym =  8     inv. 180 deg rotation - cart. axis [1,0,0]   

 cryst.   s( 8) = (    -1          0          0      )
                  (     1          1          0      )
                  (     0          0          1      )

 cart.    s( 8) = ( -1.0000000  0.0000000  0.0000000 )
                  (  0.0000000  1.0000000  0.0000000 )
                  (  0.0000000  0.0000000  1.0000000 )


      isym =  9     inv. 180 deg rotation - cryst. axis [1,-1,0] 

 cryst.   s( 9) = (     0          1          0      )    f =(  0.0000000 )
                  (     1          0          0      )       (  0.0000000 )
                  (     0          0          1      )       ( -0.5000000 )

 cart.    s( 9) = ( -0.5000000  0.8660254  0.0000000 )    f =(  0.0000000 )
                  (  0.8660254  0.5000000  0.0000000 )       (  0.0000000 )
                  (  0.0000000  0.0000000  1.0000000 )       ( -2.6000000 )


      isym = 10     inv. 180 deg rotation - cryst. axis [2,1,0]  

 cryst.   s(10) = (    -1         -1          0      )    f =(  0.0000000 )
                  (     0          1          0      )       (  0.0000000 )
                  (     0          0          1      )       ( -0.5000000 )

 cart.    s(10) = ( -0.5000000 -0.8660254  0.0000000 )    f =(  0.0000000 )
                  ( -0.8660254  0.5000000  0.0000000 )       (  0.0000000 )
                  (  0.0000000  0.0000000  1.0000000 )       ( -2.6000000 )


      isym = 11     inv. 180 deg rotation - cryst. axis [0,1,0]  

 cryst.   s(11) = (     1          1          0      )
                  (     0         -1          0      )
                  (     0          0          1      )

 cart.    s(11) = (  0.5000000  0.8660254  0.0000000 )
                  (  0.8660254 -0.5000000  0.0000000 )
                  (  0.0000000  0.0000000  1.0000000 )


      isym = 12     inv. 180 deg rotation - cryst. axis [1,1,0]  

 cryst.   s(12) = (     0         -1          0      )
                  (    -1          0          0      )
                  (     0          0          1      )

 cart.    s(12) = (  0.5000000 -0.8660254  0.0000000 )
                  ( -0.8660254 -0.5000000  0.0000000 )
                  (  0.0000000  0.0000000  1.0000000 )


     point group C_6v (6mm) 
     there are  6 classes
     the character table:

       E     2C6   2C3   C2    3s_v  3s_d 
A_1    1.00  1.00  1.00  1.00  1.00  1.00
A_2    1.00  1.00  1.00  1.00 -1.00 -1.00
B_1    1.00 -1.00  1.00 -1.00  1.00 -1.00
B_2    1.00 -1.00  1.00 -1.00 -1.00  1.00
E_1    2.00  1.00 -1.00 -2.00  0.00  0.00
E_2    2.00 -1.00 -1.00  2.00  0.00  0.00

     the symmetry operations in each class:
     E        1
     C2       2
     2C6      3    4
     2C3      5    6
     3s_v     7    9   10
     3s_d     8   12   11

   Cartesian axes

     site n.     atom                  positions (alat units)
         1           Zn  tau(   1) = (   1.6250000   0.9381942   0.0000000  )
         2           Zn  tau(   2) = (   0.0000000   1.8763884   2.6000000  )
         3           O   tau(   3) = (   1.6250000   0.9381942   3.2136000  )
         4           O   tau(   4) = (   0.0000000   1.8763884   0.6136000  )

   Crystallographic axes

     site n.     atom                  positions (cryst. coord.)
         1           Zn  tau(   1) = (  0.6666667  0.3333333  0.0000000  )
         2           Zn  tau(   2) = (  0.3333333  0.6666667  0.5000000  )
         3           O   tau(   3) = (  0.6666667  0.3333333  0.6180000  )
         4           O   tau(   4) = (  0.3333333  0.6666667  0.1180000  )

     number of k points=    72
                       cart. coord. in units 2pi/alat
        k(    1) = (   0.0229886   0.0398174   0.0961538), wk =   0.0277778
        k(    2) = (   0.0212203   0.0367547   0.0961538), wk =   0.0277778
        k(    3) = (   0.0194517   0.0336913   0.0961538), wk =   0.0277778
        k(    4) = (   0.0176834   0.0306285   0.0961538), wk =   0.0277778
        k(    5) = (   0.0159151   0.0275657   0.0961538), wk =   0.0277778
        k(    6) = (   0.0141468   0.0245029   0.0961538), wk =   0.0277778
        k(    7) = (   0.0123785   0.0214401   0.0961538), wk =   0.0277778
        k(    8) = (   0.0106102   0.0183773   0.0961538), wk =   0.0277778
        k(    9) = (   0.0088418   0.0153145   0.0961538), wk =   0.0277778
        k(   10) = (   0.0070735   0.0122517   0.0961538), wk =   0.0277778
        k(   11) = (   0.0053049   0.0091884   0.0961538), wk =   0.0277778
        k(   12) = (   0.0035366   0.0061256   0.0961538), wk =   0.0277778
        k(   13) = (   0.0017683   0.0030628   0.0961538), wk =   0.0277778
        k(   14) = (   0.0000000   0.0000000   0.0961538), wk =   0.0277778
        k(   15) = (   0.0030769   0.0017765   0.0961538), wk =   0.0277778
        k(   16) = (   0.0061538   0.0035529   0.0961538), wk =   0.0277778
        k(   17) = (   0.0092308   0.0053294   0.0961538), wk =   0.0277778
        k(   18) = (   0.0123077   0.0071058   0.0961538), wk =   0.0277778
        k(   19) = (   0.0153846   0.0088823   0.0961538), wk =   0.0277778
        k(   20) = (   0.0184615   0.0106588   0.0961538), wk =   0.0277778
        k(   21) = (   0.0215385   0.0124352   0.0961538), wk =   0.0277778
        k(   22) = (   0.0246154   0.0142117   0.0961538), wk =   0.0277778
        k(   23) = (   0.0276923   0.0159882   0.0961538), wk =   0.0277778
        k(   24) = (   0.0307692   0.0177646   0.0961538), wk =   0.0277778
        k(   25) = (   0.0338462   0.0195411   0.0961538), wk =   0.0277778
        k(   26) = (   0.0369231   0.0213175   0.0961538), wk =   0.0277778
        k(   27) = (   0.0400000   0.0230940   0.0961538), wk =   0.0277778
        k(   28) = (   0.0430769   0.0248705   0.0961538), wk =   0.0277778
        k(   29) = (   0.0461538   0.0266469   0.0961538), wk =   0.0277778
        k(   30) = (   0.0492308   0.0284234   0.0961538), wk =   0.0277778
        k(   31) = (   0.0523077   0.0301999   0.0961538), wk =   0.0277778
        k(   32) = (   0.0553846   0.0319763   0.0961538), wk =   0.0277778
        k(   33) = (   0.0584615   0.0337528   0.0961538), wk =   0.0277778
        k(   34) = (   0.0615385   0.0355292   0.0961538), wk =   0.0277778
        k(   35) = (   0.0646154   0.0373057   0.0961538), wk =   0.0277778
        k(   36) = (   0.0676923   0.0390822   0.0961538), wk =   0.0277778
        k(   37) = (   0.0707692   0.0408586   0.0961538), wk =   0.0277778
        k(   38) = (   0.0738462   0.0426351   0.0961538), wk =   0.0277778
        k(   39) = (   0.0769231   0.0444116   0.0961538), wk =   0.0277778
        k(   40) = (   0.0800000   0.0461880   0.0961538), wk =   0.0277778
        k(   41) = (   0.0830769   0.0479645   0.0961538), wk =   0.0277778
        k(   42) = (   0.0861538   0.0497409   0.0961538), wk =   0.0277778
        k(   43) = (   0.0892308   0.0515174   0.0961538), wk =   0.0277778
        k(   44) = (   0.0923077   0.0532939   0.0961538), wk =   0.0277778
        k(   45) = (   0.0953846   0.0550703   0.0961538), wk =   0.0277778
        k(   46) = (   0.0984615   0.0568468   0.0961538), wk =   0.0277778
        k(   47) = (   0.1015385   0.0586233   0.0961538), wk =   0.0277778
        k(   48) = (   0.1046154   0.0603997   0.0961538), wk =   0.0277778
        k(   49) = (   0.1076923   0.0621762   0.0961538), wk =   0.0277778
        k(   50) = (   0.1107692   0.0639526   0.0961538), wk =   0.0277778
        k(   51) = (   0.1138462   0.0657291   0.0961538), wk =   0.0277778
        k(   52) = (   0.1169231   0.0675056   0.0961538), wk =   0.0277778
        k(   53) = (   0.1200000   0.0692820   0.0961538), wk =   0.0277778
        k(   54) = (   0.1230769   0.0710585   0.0961538), wk =   0.0277778
        k(   55) = (   0.1261538   0.0728350   0.0961538), wk =   0.0277778
        k(   56) = (   0.1292308   0.0746114   0.0961538), wk =   0.0277778
        k(   57) = (   0.1323077   0.0763879   0.0961538), wk =   0.0277778
        k(   58) = (   0.1353846   0.0781643   0.0961538), wk =   0.0277778
        k(   59) = (   0.1384615   0.0799408   0.0961538), wk =   0.0277778
        k(   60) = (   0.1415385   0.0817173   0.0961538), wk =   0.0277778
        k(   61) = (   0.1446154   0.0834937   0.0961538), wk =   0.0277778
        k(   62) = (   0.1476923   0.0852702   0.0961538), wk =   0.0277778
        k(   63) = (   0.1507692   0.0870467   0.0961538), wk =   0.0277778
        k(   64) = (   0.1538462   0.0888231   0.0961538), wk =   0.0277778
        k(   65) = (   0.1538462   0.0888231   0.0925925), wk =   0.0277778
        k(   66) = (   0.1538462   0.0888231   0.0890313), wk =   0.0277778
        k(   67) = (   0.1538462   0.0888231   0.0854700), wk =   0.0277778
        k(   68) = (   0.1538462   0.0888231   0.0819088), wk =   0.0277778
        k(   69) = (   0.1538462   0.0888231   0.0783475), wk =   0.0277778
        k(   70) = (   0.1538462   0.0888231   0.0747863), wk =   0.0277778
        k(   71) = (   0.1538462   0.0888231   0.0712250), wk =   0.0277778
        k(   72) = (   0.1538462   0.0888231   0.0676638), wk =   0.0277778

                       cryst. coord.
        k(    1) = (   0.0747130   0.0747130   0.5000000), wk =   0.0277778
        k(    2) = (   0.0689660   0.0689660   0.5000000), wk =   0.0277778
        k(    3) = (   0.0632180   0.0632180   0.5000000), wk =   0.0277778
        k(    4) = (   0.0574710   0.0574710   0.5000000), wk =   0.0277778
        k(    5) = (   0.0517240   0.0517240   0.5000000), wk =   0.0277778
        k(    6) = (   0.0459770   0.0459770   0.5000000), wk =   0.0277778
        k(    7) = (   0.0402300   0.0402300   0.5000000), wk =   0.0277778
        k(    8) = (   0.0344830   0.0344830   0.5000000), wk =   0.0277778
        k(    9) = (   0.0287360   0.0287360   0.5000000), wk =   0.0277778
        k(   10) = (   0.0229890   0.0229890   0.5000000), wk =   0.0277778
        k(   11) = (   0.0172410   0.0172410   0.5000000), wk =   0.0277778
        k(   12) = (   0.0114940   0.0114940   0.5000000), wk =   0.0277778
        k(   13) = (   0.0057470   0.0057470   0.5000000), wk =   0.0277778
        k(   14) = (   0.0000000   0.0000000   0.5000000), wk =   0.0277778
        k(   15) = (   0.0100000   0.0000000   0.5000000), wk =   0.0277778
        k(   16) = (   0.0200000   0.0000000   0.5000000), wk =   0.0277778
        k(   17) = (   0.0300000   0.0000000   0.5000000), wk =   0.0277778
        k(   18) = (   0.0400000   0.0000000   0.5000000), wk =   0.0277778
        k(   19) = (   0.0500000   0.0000000   0.5000000), wk =   0.0277778
        k(   20) = (   0.0600000   0.0000000   0.5000000), wk =   0.0277778
        k(   21) = (   0.0700000   0.0000000   0.5000000), wk =   0.0277778
        k(   22) = (   0.0800000   0.0000000   0.5000000), wk =   0.0277778
        k(   23) = (   0.0900000   0.0000000   0.5000000), wk =   0.0277778
        k(   24) = (   0.1000000   0.0000000   0.5000000), wk =   0.0277778
        k(   25) = (   0.1100000   0.0000000   0.5000000), wk =   0.0277778
        k(   26) = (   0.1200000   0.0000000   0.5000000), wk =   0.0277778
        k(   27) = (   0.1300000   0.0000000   0.5000000), wk =   0.0277778
        k(   28) = (   0.1400000   0.0000000   0.5000000), wk =   0.0277778
        k(   29) = (   0.1500000   0.0000000   0.5000000), wk =   0.0277778
        k(   30) = (   0.1600000   0.0000000   0.5000000), wk =   0.0277778
        k(   31) = (   0.1700000   0.0000000   0.5000000), wk =   0.0277778
        k(   32) = (   0.1800000   0.0000000   0.5000000), wk =   0.0277778
        k(   33) = (   0.1900000   0.0000000   0.5000000), wk =   0.0277778
        k(   34) = (   0.2000000   0.0000000   0.5000000), wk =   0.0277778
        k(   35) = (   0.2100000   0.0000000   0.5000000), wk =   0.0277778
        k(   36) = (   0.2200000   0.0000000   0.5000000), wk =   0.0277778
        k(   37) = (   0.2300000   0.0000000   0.5000000), wk =   0.0277778
        k(   38) = (   0.2400000   0.0000000   0.5000000), wk =   0.0277778
        k(   39) = (   0.2500000   0.0000000   0.5000000), wk =   0.0277778
        k(   40) = (   0.2600000   0.0000000   0.5000000), wk =   0.0277778
        k(   41) = (   0.2700000   0.0000000   0.5000000), wk =   0.0277778
        k(   42) = (   0.2800000   0.0000000   0.5000000), wk =   0.0277778
        k(   43) = (   0.2900000   0.0000000   0.5000000), wk =   0.0277778
        k(   44) = (   0.3000000   0.0000000   0.5000000), wk =   0.0277778
        k(   45) = (   0.3100000   0.0000000   0.5000000), wk =   0.0277778
        k(   46) = (   0.3200000   0.0000000   0.5000000), wk =   0.0277778
        k(   47) = (   0.3300000   0.0000000   0.5000000), wk =   0.0277778
        k(   48) = (   0.3400000   0.0000000   0.5000000), wk =   0.0277778
        k(   49) = (   0.3500000   0.0000000   0.5000000), wk =   0.0277778
        k(   50) = (   0.3600000   0.0000000   0.5000000), wk =   0.0277778
        k(   51) = (   0.3700000   0.0000000   0.5000000), wk =   0.0277778
        k(   52) = (   0.3800000   0.0000000   0.5000000), wk =   0.0277778
        k(   53) = (   0.3900000   0.0000000   0.5000000), wk =   0.0277778
        k(   54) = (   0.4000000   0.0000000   0.5000000), wk =   0.0277778
        k(   55) = (   0.4100000   0.0000000   0.5000000), wk =   0.0277778
        k(   56) = (   0.4200000   0.0000000   0.5000000), wk =   0.0277778
        k(   57) = (   0.4300000   0.0000000   0.5000000), wk =   0.0277778
        k(   58) = (   0.4400000   0.0000000   0.5000000), wk =   0.0277778
        k(   59) = (   0.4500000   0.0000000   0.5000000), wk =   0.0277778
        k(   60) = (   0.4600000   0.0000000   0.5000000), wk =   0.0277778
        k(   61) = (   0.4700000   0.0000000   0.5000000), wk =   0.0277778
        k(   62) = (   0.4800000   0.0000000   0.5000000), wk =   0.0277778
        k(   63) = (   0.4900000   0.0000000   0.5000000), wk =   0.0277778
        k(   64) = (   0.5000000   0.0000000   0.5000000), wk =   0.0277778
        k(   65) = (   0.5000000   0.0000000   0.4814810), wk =   0.0277778
        k(   66) = (   0.5000000   0.0000000   0.4629630), wk =   0.0277778
        k(   67) = (   0.5000000   0.0000000   0.4444440), wk =   0.0277778
        k(   68) = (   0.5000000   0.0000000   0.4259260), wk =   0.0277778
        k(   69) = (   0.5000000   0.0000000   0.4074070), wk =   0.0277778
        k(   70) = (   0.5000000   0.0000000   0.3888890), wk =   0.0277778
        k(   71) = (   0.5000000   0.0000000   0.3703700), wk =   0.0277778
        k(   72) = (   0.5000000   0.0000000   0.3518520), wk =   0.0277778

     Dense  grid:   346889 G-vectors     FFT dimensions: (  80,  80, 128)

     Largest allocated arrays     est. size (Mb)     dimensions
        Kohn-Sham Wavefunctions         0.27 Mb     (    686,   26)
        NL pseudopotentials             0.10 Mb     (    686,   10)
        Each V/rho on FFT grid          0.20 Mb     (  12800)
        Each G-vector array             0.04 Mb     (   5421)
        G-vector shells                 0.02 Mb     (   2533)
     Largest temporary arrays     est. size (Mb)     dimensions
        Auxiliary wavefunctions         1.09 Mb     (    686,  104)
        Each subspace H/S matrix        0.01 Mb     (  20,  20)
        Each <psi_i|beta_j> matrix      0.00 Mb     (     10,   26)
     writing wfc files to a dedicated directory

     Check: negative/imaginary core charge=   -0.000103    0.000000

     The potential is recalculated from file :
     ./Zn2O2.save/charge-density.dat

     Starting wfc are   34 randomized atomic wfcs

     total cpu time spent up to now is        2.8 secs

     per-process dynamical memory:     8.7 Mb

     Band Structure Calculation
     Davidson diagonalization with overlap

     Computing kpt #:     1
     total cpu time spent up to now is        4.7 secs

     Computing kpt #:     2
     total cpu time spent up to now is        6.4 secs

     Computing kpt #:     3
     total cpu time spent up to now is        8.3 secs

     Computing kpt #:     4
     total cpu time spent up to now is       10.2 secs

     Computing kpt #:     5
     total cpu time spent up to now is       12.8 secs

     Computing kpt #:     6
     total cpu time spent up to now is       15.1 secs

     Computing kpt #:     7
     total cpu time spent up to now is       16.8 secs

     Computing kpt #:     8
     total cpu time spent up to now is       18.9 secs

     Computing kpt #:     9
     total cpu time spent up to now is       21.9 secs

     Computing kpt #:    10
     total cpu time spent up to now is       24.4 secs

     Computing kpt #:    11
     total cpu time spent up to now is       56.4 secs

     Computing kpt #:    12
     total cpu time spent up to now is       58.7 secs

     Computing kpt #:    13
     total cpu time spent up to now is       61.1 secs

     Computing kpt #:    14
     total cpu time spent up to now is       63.1 secs

     Computing kpt #:    15
     total cpu time spent up to now is       66.2 secs

     Computing kpt #:    16
     total cpu time spent up to now is       69.1 secs

     Computing kpt #:    17
     total cpu time spent up to now is       75.1 secs

     Computing kpt #:    18
     total cpu time spent up to now is       77.2 secs

     Computing kpt #:    19
     total cpu time spent up to now is       79.7 secs

     Computing kpt #:    20
     total cpu time spent up to now is       81.6 secs

     Computing kpt #:    21
     total cpu time spent up to now is       83.5 secs

     Computing kpt #:    22
     total cpu time spent up to now is       85.4 secs

     Computing kpt #:    23
     total cpu time spent up to now is       87.6 secs

     Computing kpt #:    24
     total cpu time spent up to now is       90.5 secs

     Computing kpt #:    25
     total cpu time spent up to now is       92.8 secs

     Computing kpt #:    26
     total cpu time spent up to now is       95.0 secs

     Computing kpt #:    27
     total cpu time spent up to now is       97.7 secs

     Computing kpt #:    28
     total cpu time spent up to now is       99.4 secs

     Computing kpt #:    29
     total cpu time spent up to now is      101.7 secs

     Computing kpt #:    30
     total cpu time spent up to now is      103.3 secs

     Computing kpt #:    31
     total cpu time spent up to now is      105.0 secs

     Computing kpt #:    32
     total cpu time spent up to now is      107.0 secs

     Computing kpt #:    33
     total cpu time spent up to now is      108.6 secs

     Computing kpt #:    34
     total cpu time spent up to now is      110.6 secs

     Computing kpt #:    35
     total cpu time spent up to now is      112.8 secs

     Computing kpt #:    36
     total cpu time spent up to now is      114.9 secs

     Computing kpt #:    37
     total cpu time spent up to now is      117.1 secs

     Computing kpt #:    38
     total cpu time spent up to now is      119.0 secs

     Computing kpt #:    39
     total cpu time spent up to now is      120.8 secs

     Computing kpt #:    40
     total cpu time spent up to now is      123.4 secs

     Computing kpt #:    41
     total cpu time spent up to now is      126.0 secs

     Computing kpt #:    42
     total cpu time spent up to now is      128.2 secs

     Computing kpt #:    43
     total cpu time spent up to now is      131.3 secs

     Computing kpt #:    44
     total cpu time spent up to now is      133.4 secs

     Computing kpt #:    45
     total cpu time spent up to now is      135.4 secs

     Computing kpt #:    46
     total cpu time spent up to now is      137.9 secs

     Computing kpt #:    47
     total cpu time spent up to now is      141.1 secs

     Computing kpt #:    48
     total cpu time spent up to now is      143.3 secs

     Computing kpt #:    49
     total cpu time spent up to now is      146.3 secs

     Computing kpt #:    50
     total cpu time spent up to now is      148.1 secs

     Computing kpt #:    51
     total cpu time spent up to now is      150.0 secs

     Computing kpt #:    52
     total cpu time spent up to now is      152.0 secs

     Computing kpt #:    53
     total cpu time spent up to now is      153.9 secs

     Computing kpt #:    54
     total cpu time spent up to now is      155.6 secs

     Computing kpt #:    55
     total cpu time spent up to now is      158.3 secs

     Computing kpt #:    56
     total cpu time spent up to now is      161.6 secs

     Computing kpt #:    57
     total cpu time spent up to now is      163.4 secs

     Computing kpt #:    58
     total cpu time spent up to now is      165.4 secs

     Computing kpt #:    59
     total cpu time spent up to now is      167.6 secs

     Computing kpt #:    60
     total cpu time spent up to now is      169.5 secs

     Computing kpt #:    61
     total cpu time spent up to now is      172.6 secs

     Computing kpt #:    62
     total cpu time spent up to now is      174.8 secs

     Computing kpt #:    63
     total cpu time spent up to now is      177.1 secs

     Computing kpt #:    64
     total cpu time spent up to now is      179.3 secs

     Computing kpt #:    65
     total cpu time spent up to now is      181.3 secs

     Computing kpt #:    66
     total cpu time spent up to now is      183.2 secs

     Computing kpt #:    67
     total cpu time spent up to now is      185.5 secs

     Computing kpt #:    68
     total cpu time spent up to now is      187.3 secs

     Computing kpt #:    69
     total cpu time spent up to now is      191.2 secs

     Computing kpt #:    70
     total cpu time spent up to now is      193.9 secs

     Computing kpt #:    71
     total cpu time spent up to now is      195.7 secs

     Computing kpt #:    72
     total cpu time spent up to now is      197.5 secs

     ethr =  1.92E-13,  avg # of iterations = 16.5

     total cpu time spent up to now is      197.5 secs

     End of band structure calculation

          k = 0.0230 0.0398 0.0962     band energies (ev):

  -114.1638-114.1638 -68.8280 -68.8280 -68.8171 -68.8171 -68.8169 -68.8169
    -8.8454  -8.8454   2.4634   2.4634   2.8152   2.8152   2.8483   2.8483
     3.9962   3.9962   4.0024   4.0024   6.2099   6.2099   7.6899   7.6899
     7.9204   7.9204

          k = 0.0212 0.0368 0.0962     band energies (ev):

  -114.1638-114.1638 -68.8280 -68.8280 -68.8171 -68.8171 -68.8169 -68.8169
    -8.8556  -8.8556   2.4712   2.4712   2.8095   2.8095   2.8367   2.8367
     3.9965   3.9965   4.0017   4.0017   6.2161   6.2161   7.7395   7.7395
     7.9477   7.9477

          k = 0.0195 0.0337 0.0962     band energies (ev):

  -114.1638-114.1638 -68.8280 -68.8280 -68.8171 -68.8171 -68.8169 -68.8169
    -8.8651  -8.8651   2.4787   2.4787   2.8041   2.8041   2.8258   2.8258
     3.9969   3.9969   4.0012   4.0012   6.2208   6.2208   7.7883   7.7883
     7.9728   7.9728

          k = 0.0177 0.0306 0.0962     band energies (ev):

  -114.1638-114.1638 -68.8280 -68.8280 -68.8170 -68.8170 -68.8169 -68.8169
    -8.8739  -8.8739   2.4861   2.4861   2.7989   2.7989   2.8159   2.8159
     3.9973   3.9973   4.0007   4.0007   6.2243   6.2243   7.8357   7.8357
     7.9956   7.9956

          k = 0.0159 0.0276 0.0962     band energies (ev):

  -114.1638-114.1638 -68.8280 -68.8280 -68.8170 -68.8170 -68.8169 -68.8169
    -8.8820  -8.8820   2.4930   2.4930   2.7939   2.7939   2.8068   2.8068
     3.9977   3.9977   4.0004   4.0004   6.2269   6.2269   7.8809   7.8809
     8.0162   8.0162

          k = 0.0141 0.0245 0.0962     band energies (ev):

  -114.1638-114.1638 -68.8280 -68.8280 -68.8169 -68.8169 -68.8169 -68.8169
    -8.8893  -8.8893   2.4995   2.4995   2.7893   2.7893   2.7986   2.7986
     3.9980   3.9980   4.0001   4.0001   6.2286   6.2286   7.9235   7.9235
     8.0347   8.0347

          k = 0.0124 0.0214 0.0962     band energies (ev):

  -114.1638-114.1638 -68.8280 -68.8280 -68.8169 -68.8169 -68.8168 -68.8168
    -8.8958  -8.8958   2.5055   2.5055   2.7850   2.7850   2.7915   2.7915
     3.9984   3.9984   3.9999   3.9999   6.2298   6.2298   7.9628   7.9628
     8.0509   8.0509

          k = 0.0106 0.0184 0.0962     band energies (ev):

  -114.1638-114.1638 -68.8280 -68.8280 -68.8169 -68.8169 -68.8168 -68.8168
    -8.9015  -8.9015   2.5109   2.5109   2.7811   2.7811   2.7853   2.7853
     3.9986   3.9986   3.9998   3.9998   6.2305   6.2305   7.9982   7.9982
     8.0649   8.0649

          k = 0.0088 0.0153 0.0962     band energies (ev):

  -114.1638-114.1638 -68.8280 -68.8280 -68.8169 -68.8169 -68.8168 -68.8168
    -8.9063  -8.9063   2.5156   2.5156   2.7776   2.7776   2.7801   2.7801
     3.9989   3.9989   3.9997   3.9997   6.2308   6.2308   8.0293   8.0293
     8.0768   8.0768

          k = 0.0071 0.0123 0.0962     band energies (ev):

  -114.1638-114.1638 -68.8280 -68.8280 -68.8168 -68.8168 -68.8168 -68.8168
    -8.9103  -8.9103   2.5196   2.5196   2.7746   2.7746   2.7759   2.7759
     3.9991   3.9991   3.9996   3.9996   6.2310   6.2310   8.0554   8.0554
     8.0864   8.0864

          k = 0.0053 0.0092 0.0962     band energies (ev):

  -114.1638-114.1638 -68.8280 -68.8280 -68.8168 -68.8168 -68.8168 -68.8168
    -8.9134  -8.9134   2.5228   2.5228   2.7721   2.7721   2.7727   2.7727
     3.9993   3.9993   3.9996   3.9996   6.2310   6.2310   8.0762   8.0762
     8.0939   8.0939

          k = 0.0035 0.0061 0.0962     band energies (ev):

  -114.1638-114.1638 -68.8280 -68.8280 -68.8168 -68.8168 -68.8168 -68.8168
    -8.9156  -8.9156   2.5250   2.5250   2.7703   2.7703   2.7704   2.7704
     3.9994   3.9994   3.9995   3.9995   6.2310   6.2310   8.0913   8.0913
     8.0993   8.0993

          k = 0.0018 0.0031 0.0962     band energies (ev):

  -114.1638-114.1638 -68.8280 -68.8280 -68.8168 -68.8168 -68.8168 -68.8168
    -8.9169  -8.9169   2.5264   2.5264   2.7691   2.7691   2.7691   2.7691
     3.9995   3.9995   3.9995   3.9995   6.2309   6.2309   8.1005   8.1005
     8.1025   8.1025

          k = 0.0000 0.0000 0.0962     band energies (ev):

  -114.1638-114.1638 -68.8280 -68.8280 -68.8168 -68.8168 -68.8168 -68.8168
    -8.9174  -8.9174   2.5269   2.5269   2.7687   2.7687   2.7687   2.7687
     3.9995   3.9995   3.9995   3.9995   6.2309   6.2309   8.1036   8.1036
     8.1036   8.1036

          k = 0.0031 0.0018 0.0962     band energies (ev):

  -114.1638-114.1638 -68.8280 -68.8280 -68.8168 -68.8168 -68.8168 -68.8168
    -8.9169  -8.9169   2.5264   2.5264   2.7691   2.7691   2.7691   2.7691
     3.9995   3.9995   3.9995   3.9995   6.2309   6.2309   8.1005   8.1005
     8.1025   8.1025

          k = 0.0062 0.0036 0.0962     band energies (ev):

  -114.1638-114.1638 -68.8280 -68.8280 -68.8168 -68.8168 -68.8168 -68.8168
    -8.9156  -8.9156   2.5250   2.5250   2.7703   2.7703   2.7704   2.7704
     3.9994   3.9994   3.9995   3.9995   6.2310   6.2310   8.0912   8.0912
     8.0993   8.0993

          k = 0.0092 0.0053 0.0962     band energies (ev):

  -114.1638-114.1638 -68.8280 -68.8280 -68.8168 -68.8168 -68.8168 -68.8168
    -8.9133  -8.9133   2.5227   2.5227   2.7723   2.7723   2.7725   2.7725
     3.9993   3.9993   3.9995   3.9995   6.2310   6.2310   8.0759   8.0759
     8.0939   8.0939

          k = 0.0123 0.0071 0.0962     band energies (ev):

  -114.1638-114.1638 -68.8280 -68.8280 -68.8168 -68.8168 -68.8168 -68.8168
    -8.9102  -8.9102   2.5195   2.5195   2.7751   2.7751   2.7754   2.7754
     3.9991   3.9991   3.9996   3.9996   6.2310   6.2310   8.0549   8.0549
     8.0864   8.0864

          k = 0.0154 0.0089 0.0962     band energies (ev):

  -114.1638-114.1638 -68.8280 -68.8280 -68.8169 -68.8169 -68.8168 -68.8168
    -8.9062  -8.9062   2.5155   2.5155   2.7787   2.7787   2.7791   2.7791
     3.9989   3.9989   3.9997   3.9997   6.2308   6.2308   8.0283   8.0283
     8.0768   8.0768

          k = 0.0185 0.0107 0.0962     band energies (ev):

  -114.1638-114.1638 -68.8280 -68.8280 -68.8169 -68.8169 -68.8168 -68.8168
    -8.9013  -8.9013   2.5108   2.5108   2.7831   2.7831   2.7835   2.7835
     3.9987   3.9987   3.9998   3.9998   6.2304   6.2304   7.9968   7.9968
     8.0651   8.0651

          k = 0.0215 0.0124 0.0962     band energies (ev):

  -114.1638-114.1638 -68.8280 -68.8280 -68.8169 -68.8169 -68.8168 -68.8168
    -8.8956  -8.8956   2.5053   2.5053   2.7883   2.7883   2.7886   2.7886
     3.9984   3.9984   3.9999   3.9999   6.2297   6.2297   7.9606   7.9606
     8.0515   8.0515

          k = 0.0246 0.0142 0.0962     band energies (ev):

  -114.1638-114.1638 -68.8280 -68.8280 -68.8169 -68.8169 -68.8169 -68.8169
    -8.8890  -8.8890   2.4992   2.4992   2.7941   2.7941   2.7943   2.7943
     3.9981   3.9981   4.0000   4.0000   6.2285   6.2285   7.9204   7.9204
     8.0358   8.0358

          k = 0.0277 0.0160 0.0962     band energies (ev):

  -114.1638-114.1638 -68.8280 -68.8280 -68.8170 -68.8170 -68.8169 -68.8169
    -8.8817  -8.8817   2.4925   2.4925   2.8007   2.8007   2.8008   2.8008
     3.9978   3.9978   4.0002   4.0002   6.2267   6.2267   7.8766   7.8766
     8.0183   8.0183

          k = 0.0308 0.0178 0.0962     band energies (ev):

  -114.1638-114.1638 -68.8280 -68.8280 -68.8170 -68.8170 -68.8169 -68.8169
    -8.8735  -8.8735   2.4853   2.4853   2.8077   2.8077   2.8081   2.8081
     3.9975   3.9975   4.0005   4.0005   6.2240   6.2240   7.8299   7.8299
     7.9989   7.9989

          k = 0.0338 0.0195 0.0962     band energies (ev):

  -114.1638-114.1638 -68.8280 -68.8280 -68.8171 -68.8171 -68.8169 -68.8169
    -8.8647  -8.8647   2.4777   2.4777   2.8153   2.8153   2.8161   2.8161
     3.9973   3.9973   4.0008   4.0008   6.2203   6.2203   7.7808   7.7808
     7.9778   7.9778

          k = 0.0369 0.0213 0.0962     band energies (ev):

  -114.1638-114.1638 -68.8280 -68.8280 -68.8171 -68.8171 -68.8169 -68.8169
    -8.8550  -8.8550   2.4697   2.4697   2.8234   2.8234   2.8247   2.8247
     3.9970   3.9970   4.0012   4.0012   6.2153   6.2153   7.7299   7.7299
     7.9550   7.9550

          k = 0.0400 0.0231 0.0962     band energies (ev):

  -114.1638-114.1638 -68.8280 -68.8280 -68.8171 -68.8171 -68.8169 -68.8169
    -8.8448  -8.8448   2.4615   2.4615   2.8320   2.8320   2.8340   2.8340
     3.9968   3.9968   4.0017   4.0017   6.2086   6.2086   7.6780   7.6780
     7.9306   7.9306

          k = 0.0431 0.0249 0.0962     band energies (ev):

  -114.1638-114.1638 -68.8280 -68.8280 -68.8172 -68.8172 -68.8169 -68.8169
    -8.8338  -8.8338   2.4530   2.4530   2.8411   2.8411   2.8439   2.8439
     3.9966   3.9966   4.0022   4.0022   6.2000   6.2000   7.6256   7.6256
     7.9047   7.9047

          k = 0.0462 0.0266 0.0962     band energies (ev):

  -114.1638-114.1638 -68.8280 -68.8280 -68.8172 -68.8172 -68.8169 -68.8169
    -8.8222  -8.8222   2.4443   2.4443   2.8507   2.8507   2.8544   2.8544
     3.9965   3.9965   4.0029   4.0029   6.1891   6.1891   7.5734   7.5734
     7.8773   7.8773

          k = 0.0492 0.0284 0.0962     band energies (ev):

  -114.1638-114.1638 -68.8280 -68.8280 -68.8173 -68.8173 -68.8169 -68.8169
    -8.8101  -8.8101   2.4355   2.4355   2.8607   2.8607   2.8653   2.8653
     3.9965   3.9965   4.0037   4.0037   6.1756   6.1756   7.5221   7.5221
     7.8487   7.8487

          k = 0.0523 0.0302 0.0962     band energies (ev):

  -114.1638-114.1638 -68.8280 -68.8280 -68.8174 -68.8174 -68.8170 -68.8170
    -8.7974  -8.7974   2.4267   2.4267   2.8712   2.8712   2.8768   2.8768
     3.9965   3.9965   4.0046   4.0046   6.1590   6.1590   7.4723   7.4723
     7.8188   7.8188

          k = 0.0554 0.0320 0.0962     band energies (ev):

  -114.1638-114.1638 -68.8280 -68.8280 -68.8174 -68.8174 -68.8170 -68.8170
    -8.7843  -8.7843   2.4179   2.4179   2.8821   2.8821   2.8887   2.8887
     3.9967   3.9967   4.0056   4.0056   6.1391   6.1391   7.4246   7.4246
     7.7879   7.7879

          k = 0.0585 0.0338 0.0962     band energies (ev):

  -114.1638-114.1638 -68.8280 -68.8280 -68.8175 -68.8175 -68.8170 -68.8170
    -8.7707  -8.7707   2.4092   2.4092   2.8934   2.8934   2.9010   2.9010
     3.9970   3.9970   4.0068   4.0068   6.1153   6.1153   7.3796   7.3796
     7.7559   7.7559

          k = 0.0615 0.0355 0.0962     band energies (ev):

  -114.1638-114.1638 -68.8280 -68.8280 -68.8175 -68.8175 -68.8170 -68.8170
    -8.7568  -8.7568   2.4006   2.4006   2.9051   2.9051   2.9137   2.9137
     3.9974   3.9974   4.0081   4.0081   6.0875   6.0875   7.3378   7.3378
     7.7231   7.7231

          k = 0.0646 0.0373 0.0962     band energies (ev):

  -114.1638-114.1638 -68.8280 -68.8280 -68.8176 -68.8176 -68.8170 -68.8170
    -8.7425  -8.7425   2.3922   2.3922   2.9173   2.9173   2.9266   2.9266
     3.9980   3.9980   4.0096   4.0096   6.0555   6.0555   7.2996   7.2996
     7.6895   7.6895

          k = 0.0677 0.0391 0.0962     band energies (ev):

  -114.1638-114.1638 -68.8280 -68.8280 -68.8177 -68.8177 -68.8170 -68.8170
    -8.7279  -8.7279   2.3840   2.3840   2.9298   2.9298   2.9398   2.9398
     3.9988   3.9988   4.0113   4.0113   6.0191   6.0191   7.2653   7.2653
     7.6552   7.6552

          k = 0.0708 0.0409 0.0962     band energies (ev):

  -114.1638-114.1638 -68.8280 -68.8280 -68.8177 -68.8177 -68.8171 -68.8171
    -8.7131  -8.7131   2.3761   2.3761   2.9426   2.9426   2.9532   2.9532
     3.9998   3.9998   4.0131   4.0131   5.9784   5.9784   7.2350   7.2350
     7.6205   7.6205

          k = 0.0738 0.0426 0.0962     band energies (ev):

  -114.1638-114.1638 -68.8280 -68.8280 -68.8178 -68.8178 -68.8171 -68.8171
    -8.6981  -8.6981   2.3685   2.3685   2.9558   2.9558   2.9668   2.9668
     4.0009   4.0009   4.0152   4.0152   5.9335   5.9335   7.2087   7.2087
     7.5853   7.5853

          k = 0.0769 0.0444 0.0962     band energies (ev):

  -114.1638-114.1638 -68.8280 -68.8280 -68.8179 -68.8179 -68.8171 -68.8171
    -8.6830  -8.6830   2.3613   2.3613   2.9693   2.9693   2.9804   2.9804
     4.0023   4.0023   4.0175   4.0175   5.8847   5.8847   7.1863   7.1863
     7.5499   7.5499

          k = 0.0800 0.0462 0.0962     band energies (ev):

  -114.1638-114.1638 -68.8280 -68.8280 -68.8179 -68.8179 -68.8171 -68.8171
    -8.6679  -8.6679   2.3545   2.3545   2.9831   2.9831   2.9940   2.9940
     4.0039   4.0039   4.0200   4.0200   5.8324   5.8324   7.1677   7.1677
     7.5144   7.5144

          k = 0.0831 0.0480 0.0962     band energies (ev):

  -114.1638-114.1638 -68.8280 -68.8280 -68.8180 -68.8180 -68.8171 -68.8171
    -8.6528  -8.6528   2.3481   2.3481   2.9973   2.9973   3.0076   3.0076
     4.0057   4.0057   4.0227   4.0227   5.7769   5.7769   7.1525   7.1525
     7.4788   7.4788

          k = 0.0862 0.0497 0.0962     band energies (ev):

  -114.1637-114.1637 -68.8280 -68.8280 -68.8180 -68.8180 -68.8172 -68.8172
    -8.6377  -8.6377   2.3422   2.3422   3.0117   3.0117   3.0212   3.0212
     4.0078   4.0078   4.0257   4.0257   5.7187   5.7187   7.1404   7.1404
     7.4434   7.4434

          k = 0.0892 0.0515 0.0962     band energies (ev):

  -114.1637-114.1637 -68.8280 -68.8280 -68.8181 -68.8181 -68.8172 -68.8172
    -8.6228  -8.6228   2.3367   2.3367   3.0263   3.0263   3.0345   3.0345
     4.0101   4.0101   4.0291   4.0291   5.6584   5.6584   7.1311   7.1311
     7.4082   7.4082

          k = 0.0923 0.0533 0.0962     band energies (ev):

  -114.1637-114.1637 -68.8280 -68.8280 -68.8182 -68.8182 -68.8172 -68.8172
    -8.6081  -8.6081   2.3317   2.3317   3.0412   3.0412   3.0477   3.0477
     4.0126   4.0126   4.0327   4.0327   5.5963   5.5963   7.1243   7.1243
     7.3735   7.3735

          k = 0.0954 0.0551 0.0962     band energies (ev):

  -114.1637-114.1637 -68.8280 -68.8280 -68.8182 -68.8182 -68.8172 -68.8172
    -8.5936  -8.5936   2.3272   2.3272   3.0562   3.0562   3.0606   3.0606
     4.0153   4.0153   4.0366   4.0366   5.5331   5.5331   7.1195   7.1195
     7.3392   7.3392

          k = 0.0985 0.0568 0.0962     band energies (ev):

  -114.1637-114.1637 -68.8280 -68.8280 -68.8183 -68.8183 -68.8172 -68.8172
    -8.5795  -8.5795   2.3231   2.3231   3.0714   3.0714   3.0731   3.0731
     4.0182   4.0182   4.0409   4.0409   5.4691   5.4691   7.1164   7.1164
     7.3056   7.3056

          k = 0.1015 0.0586 0.0962     band energies (ev):

  -114.1637-114.1637 -68.8280 -68.8280 -68.8184 -68.8184 -68.8172 -68.8172
    -8.5657  -8.5657   2.3196   2.3196   3.0853   3.0853   3.0867   3.0867
     4.0213   4.0213   4.0456   4.0456   5.4047   5.4047   7.1149   7.1149
     7.2729   7.2729

          k = 0.1046 0.0604 0.0962     band energies (ev):

  -114.1637-114.1637 -68.8280 -68.8280 -68.8184 -68.8184 -68.8173 -68.8173
    -8.5523  -8.5523   2.3164   2.3164   3.0970   3.0970   3.1020   3.1020
     4.0246   4.0246   4.0507   4.0507   5.3404   5.3404   7.1145   7.1145
     7.2411   7.2411

          k = 0.1077 0.0622 0.0962     band energies (ev):

  -114.1637-114.1637 -68.8280 -68.8280 -68.8185 -68.8185 -68.8173 -68.8173
    -8.5394  -8.5394   2.3138   2.3138   3.1083   3.1083   3.1173   3.1173
     4.0281   4.0281   4.0563   4.0563   5.2766   5.2766   7.1152   7.1152
     7.2103   7.2103

          k = 0.1108 0.0640 0.0962     band energies (ev):

  -114.1637-114.1637 -68.8280 -68.8280 -68.8185 -68.8185 -68.8173 -68.8173
    -8.5271  -8.5271   2.3115   2.3115   3.1190   3.1190   3.1325   3.1325
     4.0316   4.0316   4.0623   4.0623   5.2137   5.2137   7.1166   7.1166
     7.1808   7.1808

          k = 0.1138 0.0657 0.0962     band energies (ev):

  -114.1637-114.1637 -68.8280 -68.8280 -68.8186 -68.8186 -68.8173 -68.8173
    -8.5153  -8.5153   2.3097   2.3097   3.1291   3.1291   3.1475   3.1475
     4.0352   4.0352   4.0688   4.0688   5.1520   5.1520   7.1185   7.1185
     7.1526   7.1526

          k = 0.1169 0.0675 0.0962     band energies (ev):

  -114.1637-114.1637 -68.8279 -68.8279 -68.8186 -68.8186 -68.8173 -68.8173
    -8.5042  -8.5042   2.3082   2.3082   3.1386   3.1386   3.1623   3.1623
     4.0388   4.0388   4.0759   4.0759   5.0918   5.0918   7.1209   7.1209
     7.1258   7.1258

          k = 0.1200 0.0693 0.0962     band energies (ev):

  -114.1637-114.1637 -68.8279 -68.8279 -68.8186 -68.8186 -68.8173 -68.8173
    -8.4938  -8.4938   2.3070   2.3070   3.1475   3.1475   3.1767   3.1767
     4.0424   4.0424   4.0835   4.0835   5.0336   5.0336   7.1007   7.1007
     7.1236   7.1236

          k = 0.1231 0.0711 0.0962     band energies (ev):

  -114.1637-114.1637 -68.8279 -68.8279 -68.8187 -68.8187 -68.8173 -68.8173
    -8.4841  -8.4841   2.3061   2.3061   3.1557   3.1557   3.1906   3.1906
     4.0459   4.0459   4.0917   4.0917   4.9777   4.9777   7.0773   7.0773
     7.1264   7.1264

          k = 0.1262 0.0728 0.0962     band energies (ev):

  -114.1637-114.1637 -68.8279 -68.8279 -68.8187 -68.8187 -68.8173 -68.8173
    -8.4753  -8.4753   2.3054   2.3054   3.1631   3.1631   3.2038   3.2038
     4.0493   4.0493   4.1003   4.1003   4.9245   4.9245   7.0557   7.0557
     7.1292   7.1292

          k = 0.1292 0.0746 0.0962     band energies (ev):

  -114.1637-114.1637 -68.8279 -68.8279 -68.8188 -68.8188 -68.8174 -68.8174
    -8.4672  -8.4672   2.3050   2.3050   3.1699   3.1699   3.2162   3.2162
     4.0526   4.0526   4.1094   4.1094   4.8745   4.8745   7.0361   7.0361
     7.1320   7.1320

          k = 0.1323 0.0764 0.0962     band energies (ev):

  -114.1637-114.1637 -68.8279 -68.8279 -68.8188 -68.8188 -68.8174 -68.8174
    -8.4600  -8.4600   2.3047   2.3047   3.1758   3.1758   3.2277   3.2277
     4.0556   4.0556   4.1189   4.1189   4.8279   4.8279   7.0185   7.0185
     7.1346   7.1346

          k = 0.1354 0.0782 0.0962     band energies (ev):

  -114.1637-114.1637 -68.8279 -68.8279 -68.8188 -68.8188 -68.8174 -68.8174
    -8.4537  -8.4537   2.3045   2.3045   3.1811   3.1811   3.2381   3.2381
     4.0583   4.0583   4.1284   4.1284   4.7855   4.7855   7.0030   7.0030
     7.1370   7.1370

          k = 0.1385 0.0799 0.0962     band energies (ev):

  -114.1637-114.1637 -68.8279 -68.8279 -68.8188 -68.8188 -68.8174 -68.8174
    -8.4483  -8.4483   2.3045   2.3045   3.1855   3.1855   3.2472   3.2472
     4.0607   4.0607   4.1377   4.1377   4.7477   4.7477   6.9898   6.9898
     7.1391   7.1391

          k = 0.1415 0.0817 0.0962     band energies (ev):

  -114.1637-114.1637 -68.8279 -68.8279 -68.8189 -68.8189 -68.8174 -68.8174
    -8.4439  -8.4439   2.3045   2.3045   3.1891   3.1891   3.2549   3.2549
     4.0627   4.0627   4.1465   4.1465   4.7153   4.7153   6.9789   6.9789
     7.1409   7.1409

          k = 0.1446 0.0835 0.0962     band energies (ev):

  -114.1637-114.1637 -68.8279 -68.8279 -68.8189 -68.8189 -68.8174 -68.8174
    -8.4404  -8.4404   2.3045   2.3045   3.1920   3.1920   3.2611   3.2611
     4.0643   4.0643   4.1542   4.1542   4.6889   4.6889   6.9703   6.9703
     7.1424   7.1424

          k = 0.1477 0.0853 0.0962     band energies (ev):

  -114.1637-114.1637 -68.8279 -68.8279 -68.8189 -68.8189 -68.8174 -68.8174
    -8.4379  -8.4379   2.3045   2.3045   3.1940   3.1940   3.2656   3.2656
     4.0655   4.0655   4.1603   4.1603   4.6694   4.6694   6.9642   6.9642
     7.1434   7.1434

          k = 0.1508 0.0870 0.0962     band energies (ev):

  -114.1637-114.1637 -68.8279 -68.8279 -68.8189 -68.8189 -68.8174 -68.8174
    -8.4364  -8.4364   2.3046   2.3046   3.1952   3.1952   3.2683   3.2683
     4.0662   4.0662   4.1642   4.1642   4.6573   4.6573   6.9604   6.9604
     7.1441   7.1441

          k = 0.1538 0.0888 0.0962     band energies (ev):

  -114.1637-114.1637 -68.8279 -68.8279 -68.8189 -68.8189 -68.8174 -68.8174
    -8.4359  -8.4359   2.3046   2.3046   3.1956   3.1956   3.2692   3.2692
     4.0664   4.0664   4.1656   4.1656   4.6532   4.6532   6.9592   6.9592
     7.1443   7.1443

          k = 0.1538 0.0888 0.0926     band energies (ev):

  -114.1637-114.1637 -68.8280 -68.8279 -68.8189 -68.8189 -68.8174 -68.8174
    -8.4429  -8.4289   2.3028   2.3081   3.1809   3.2106   3.2671   3.2717
     4.0643   4.0686   4.1591   4.1716   4.6474   4.6596   6.9184   6.9997
     7.0937   7.1906

          k = 0.1538 0.0888 0.0890     band energies (ev):

  -114.1637-114.1637 -68.8280 -68.8279 -68.8189 -68.8189 -68.8174 -68.8173
    -8.4500  -8.4221   2.3028   2.3134   3.1664   3.2259   3.2656   3.2747
     4.0624   4.0709   4.1521   4.1770   4.6422   4.6666   6.8775   7.0391
     7.0399   7.2324

          k = 0.1538 0.0888 0.0855     band energies (ev):

  -114.1637-114.1637 -68.8280 -68.8278 -68.8189 -68.8189 -68.8175 -68.8173
    -8.4571  -8.4153   2.3044   2.3205   3.1522   3.2412   3.2645   3.2782
     4.0605   4.0733   4.1445   4.1820   4.6377   4.6740   6.8366   6.9809
     7.0795   7.2694

          k = 0.1538 0.0888 0.0819     band energies (ev):

  -114.1637-114.1637 -68.8281 -68.8278 -68.8189 -68.8188 -68.8175 -68.8173
    -8.4642  -8.4087   2.3076   2.3294   3.1385   3.2567   3.2639   3.2821
     4.0587   4.0758   4.1365   4.1864   4.6338   4.6819   6.7957   6.9193
     7.1186   7.3015

          k = 0.1538 0.0888 0.0783     band energies (ev):

  -114.1637-114.1637 -68.8281 -68.8278 -68.8190 -68.8188 -68.8175 -68.8173
    -8.4712  -8.4023   2.3122   2.3401   3.1251   3.2639   3.2722   3.2864
     4.0570   4.0784   4.1279   4.1905   4.6307   4.6903   6.7552   6.8548
     7.1569   7.3286

          k = 0.1538 0.0888 0.0748     band energies (ev):

  -114.1637-114.1637 -68.8281 -68.8277 -68.8190 -68.8188 -68.8175 -68.8173
    -8.4782  -8.3960   2.3182   2.3525   3.1121   3.2643   3.2877   3.2912
     4.0553   4.0811   4.1187   4.1940   4.6283   4.6991   6.7150   6.7878
     7.1944   7.3507

          k = 0.1538 0.0888 0.0712     band energies (ev):

  -114.1637-114.1637 -68.8281 -68.8277 -68.8190 -68.8188 -68.8176 -68.8172
    -8.4851  -8.3899   2.3254   2.3665   3.0996   3.2653   3.2963   3.3031
     4.0538   4.0839   4.1091   4.1972   4.6267   4.7082   6.6753   6.7186
     7.2309   7.3678

          k = 0.1538 0.0888 0.0677     band energies (ev):

  -114.1637-114.1637 -68.8282 -68.8277 -68.8190 -68.8188 -68.8176 -68.8172
    -8.4919  -8.3841   2.3337   2.3821   3.0876   3.2668   3.3018   3.3184
     4.0523   4.0868   4.0990   4.2000   4.6258   4.7176   6.6362   6.6477
     7.2664   7.3800

     Writing output data file Zn2O2.save
 
     init_run     :      1.10s CPU      1.70s WALL (       1 calls)
     electrons    :    132.71s CPU    194.67s WALL (       1 calls)

     Called by init_run:
     wfcinit      :      0.00s CPU      0.00s WALL (       1 calls)
     potinit      :      0.14s CPU      0.22s WALL (       1 calls)

     Called by electrons:
     c_bands      :    132.71s CPU    194.67s WALL (       1 calls)
     v_of_rho     :      0.01s CPU      0.01s WALL (       1 calls)
     v_h          :      0.00s CPU      0.00s WALL (       1 calls)
     v_xc         :      0.01s CPU      0.00s WALL (       1 calls)

     Called by c_bands:
     init_us_2    :      0.00s CPU      0.02s WALL (      72 calls)
     cegterg      :    103.49s CPU    104.60s WALL (      72 calls)

     Called by sum_band:

     Called by *egterg:
     h_psi        :     84.08s CPU     84.43s WALL (    1334 calls)
     g_psi        :      0.14s CPU      0.52s WALL (    1190 calls)
     cdiaghg      :     13.15s CPU     12.88s WALL (    1262 calls)
     cegterg:over :      5.00s CPU      5.06s WALL (    1190 calls)
     cegterg:upda :      4.91s CPU      5.39s WALL (    1190 calls)
     cegterg:last :      2.66s CPU      2.93s WALL (     360 calls)
     cdiaghg:chol :      0.93s CPU      0.52s WALL (    1262 calls)
     cdiaghg:inve :      0.02s CPU      0.12s WALL (    1262 calls)
     cdiaghg:para :      0.74s CPU      0.86s WALL (    2524 calls)

     Called by h_psi:
     h_psi:vloc   :     83.31s CPU     83.25s WALL (    1334 calls)
     h_psi:vnl    :      0.64s CPU      1.00s WALL (    1334 calls)
     add_vuspsi   :      0.02s CPU      0.40s WALL (    1334 calls)

     General routines
     calbec       :      0.63s CPU      0.59s WALL (    1334 calls)
     fft          :      0.02s CPU      0.02s WALL (       4 calls)
     fftw         :     82.86s CPU     80.70s WALL (   57986 calls)
     davcio       :      0.01s CPU      0.10s WALL (      72 calls)
 
     Parallel routines
     fft_scatter  :     71.48s CPU     31.82s WALL (   57990 calls)
 
     PWSCF        :  2m14.93s CPU     3m22.81s WALL

 
   This run was terminated on:  22:58: 3  26Jun2013            

=------------------------------------------------------------------------------=
   JOB DONE.
=------------------------------------------------------------------------------=
Application 2755854 resources: utime ~9559s, stime ~86s, Rss ~35688, inblocks ~305583, outblocks ~2933069
