
     Program PWSCF v.5.0.2 (svn rev. 9656) starts on 26Jun2013 at 16:54:40 

     This program is part of the open-source Quantum ESPRESSO suite
     for quantum simulation of materials; please cite
         "P. Giannozzi et al., J. Phys.:Condens. Matter 21 395502 (2009);
          URL http://www.quantum-espresso.org", 
     in publications or presentations arising from this work. More details at
     http://www.quantum-espresso.org/quote.php

     Parallel version (MPI), running on   144 processors
     K-points division:     npool     =      36
     R & G space division:  proc/nbgrp/npool/nimage =       4

     Current dimensions of program PWSCF are:
     Max number of different atomic species (ntypx) = 10
     Max number of k-points (npk) =  40000
     Max angular momentum in pseudopotentials (lmaxx) =  3
     Waiting for input...
     Reading input from standard input

     Subspace diagonalization in iterative solution of the eigenvalue problem:
     a serial algorithm will be used


   Info: using nr1, nr2, nr3 values from input
 
     Parallelization info
     --------------------
     sticks:   dense  smooth     PW     G-vecs:    dense   smooth      PW
     Min        1038    1038    280                86720    86720   12064
     Max        1039    1039    281                86727    86727   12067
     Sum        4153    4153   1123               346889   346889   48263
 


     bravais-lattice index     =            0
     lattice parameter (alat)  =       1.8897  a.u.
     unit-cell volume          =     320.9943 (a.u.)^3
     number of atoms/cell      =            4
     number of atomic types    =            2
     number of electrons       =        52.00
     number of Kohn-Sham states=           26
     kinetic-energy cutoff     =     400.0000  Ry
     charge density cutoff     =    1600.0000  Ry
     convergence threshold     =      1.0E-10
     mixing beta               =       0.7000
     number of iterations used =            8  plain     mixing
     Exchange-correlation      = SLA+PW ( 1 4 0 0 0)
     EXX-fraction              =        0.00

     celldm(1)=   1.889726  celldm(2)=   0.000000  celldm(3)=   0.000000
     celldm(4)=   0.000000  celldm(5)=   0.000000  celldm(6)=   0.000000

     crystal axes: (cart. coord. in units of alat)
               a(1) = (   3.250000   0.000000   0.000000 )  
               a(2) = (  -1.625000   2.814583   0.000000 )  
               a(3) = (   0.000000   0.000000   5.200000 )  

     reciprocal axes: (cart. coord. in units 2 pi/alat)
               b(1) = (  0.307692  0.177646  0.000000 )  
               b(2) = (  0.000000  0.355292  0.000000 )  
               b(3) = (  0.000000  0.000000  0.192308 )  


     PseudoPot. # 1 for Zn read from file:
     ../../0_pp/Zn.pw-spn-nc.UPF
     MD5 check sum: 9a837cc8ef69fdaee1504d3748345681
     Pseudo is Norm-conserving + core correction, Zval = 20.0
     Generated using "atomic" code by A. Dal Corso  v.5.0.2 svn rev. 9656
     Using radial grid of 1201 points,  2 beta functions with: 
                l(1) =   0
                l(2) =   1

     PseudoPot. # 2 for  O read from file:
     ../../0_pp/O.pw-n-nc.UPF
     MD5 check sum: 22ead4914353326b5879bd0c3df232e0
     Pseudo is Norm-conserving + core correction, Zval =  6.0
     Generated using "atomic" code by A. Dal Corso  v.5.0.2 svn rev. 9656
     Using radial grid of 1095 points,  1 beta functions with: 
                l(1) =   0

     atomic species   valence    mass     pseudopotential
        Zn            20.00    65.38000     Zn( 1.00)
        O              6.00    15.99900      O( 1.00)

     12 Sym. Ops. (no inversion) found ( 6 have fractional translation)



   Cartesian axes

     site n.     atom                  positions (alat units)
         1           Zn  tau(   1) = (   1.6250000   0.9381942   0.0000000  )
         2           Zn  tau(   2) = (   0.0000000   1.8763884   2.6000000  )
         3           O   tau(   3) = (   1.6250000   0.9381942   3.2136000  )
         4           O   tau(   4) = (   0.0000000   1.8763884   0.6136000  )

     number of k points=    36
                       cart. coord. in units 2pi/alat
        k(    1) = (   0.0000000   0.0000000   0.0000000), wk =   0.0049383
        k(    2) = (   0.0000000   0.0000000   0.0384615), wk =   0.0098765
        k(    3) = (   0.0000000   0.0000000   0.0769231), wk =   0.0098765
        k(    4) = (   0.0000000   0.0394769   0.0000000), wk =   0.0296296
        k(    5) = (   0.0000000   0.0394769   0.0384615), wk =   0.0592593
        k(    6) = (   0.0000000   0.0394769   0.0769231), wk =   0.0592593
        k(    7) = (   0.0000000   0.0789539   0.0000000), wk =   0.0296296
        k(    8) = (   0.0000000   0.0789539   0.0384615), wk =   0.0592593
        k(    9) = (   0.0000000   0.0789539   0.0769231), wk =   0.0592593
        k(   10) = (   0.0000000   0.1184308   0.0000000), wk =   0.0296296
        k(   11) = (   0.0000000   0.1184308   0.0384615), wk =   0.0592593
        k(   12) = (   0.0000000   0.1184308   0.0769231), wk =   0.0592593
        k(   13) = (   0.0000000   0.1579078   0.0000000), wk =   0.0296296
        k(   14) = (   0.0000000   0.1579078   0.0384615), wk =   0.0592593
        k(   15) = (   0.0000000   0.1579078   0.0769231), wk =   0.0592593
        k(   16) = (   0.0341880   0.0592154   0.0000000), wk =   0.0296296
        k(   17) = (   0.0341880   0.0592154   0.0384615), wk =   0.0592593
        k(   18) = (   0.0341880   0.0592154   0.0769231), wk =   0.0592593
        k(   19) = (   0.0341880   0.0986924   0.0000000), wk =   0.0592593
        k(   20) = (   0.0341880   0.0986924   0.0384615), wk =   0.1185185
        k(   21) = (   0.0341880   0.0986924   0.0769231), wk =   0.1185185
        k(   22) = (   0.0341880   0.1381693   0.0000000), wk =   0.0592593
        k(   23) = (   0.0341880   0.1381693   0.0384615), wk =   0.1185185
        k(   24) = (   0.0341880   0.1381693   0.0769231), wk =   0.1185185
        k(   25) = (   0.0341880   0.1776462   0.0000000), wk =   0.0296296
        k(   26) = (   0.0341880   0.1776462   0.0384615), wk =   0.0592593
        k(   27) = (   0.0341880   0.1776462   0.0769231), wk =   0.0592593
        k(   28) = (   0.0683761   0.1184308   0.0000000), wk =   0.0296296
        k(   29) = (   0.0683761   0.1184308   0.0384615), wk =   0.0592593
        k(   30) = (   0.0683761   0.1184308   0.0769231), wk =   0.0592593
        k(   31) = (   0.0683761   0.1579078   0.0000000), wk =   0.0592593
        k(   32) = (   0.0683761   0.1579078   0.0384615), wk =   0.1185185
        k(   33) = (   0.0683761   0.1579078   0.0769231), wk =   0.1185185
        k(   34) = (   0.1025641   0.1776462   0.0000000), wk =   0.0098765
        k(   35) = (   0.1025641   0.1776462   0.0384615), wk =   0.0197531
        k(   36) = (   0.1025641   0.1776462   0.0769231), wk =   0.0197531

     Dense  grid:   346889 G-vectors     FFT dimensions: (  80,  80, 128)

     Largest allocated arrays     est. size (Mb)     dimensions
        Kohn-Sham Wavefunctions         4.31 Mb     (  10861,   26)
        NL pseudopotentials             1.66 Mb     (  10861,   10)
        Each V/rho on FFT grid          3.12 Mb     ( 204800)
        Each G-vector array             0.66 Mb     (  86727)
        G-vector shells                 0.11 Mb     (  14862)
     Largest temporary arrays     est. size (Mb)     dimensions
        Auxiliary wavefunctions        17.24 Mb     (  10861,  104)
        Each subspace H/S matrix        0.17 Mb     ( 104, 104)
        Each <psi_i|beta_j> matrix      0.00 Mb     (     10,   26)
        Arrays for rho mixing          25.00 Mb     ( 204800,   8)
     writing wfc files to a dedicated directory

     Check: negative/imaginary core charge=   -0.000103    0.000000

     Initial potential from superposition of free atoms

     starting charge   48.00000, renormalised to   52.00000
     Starting wfc are   34 randomized atomic wfcs

     total cpu time spent up to now is        7.3 secs

     per-process dynamical memory:    59.6 Mb

     Self-consistent Calculation

     iteration #  1     ecut=   400.00 Ry     beta=0.70
     Davidson diagonalization with overlap
     ethr =  1.00E-02,  avg # of iterations =  3.6

     total cpu time spent up to now is       17.0 secs

     total energy              =    -972.66335593 Ry
     Harris-Foulkes estimate   =   -1087.80718373 Ry
     estimated scf accuracy    <     135.29958541 Ry

     iteration #  2     ecut=   400.00 Ry     beta=0.70
     Davidson diagonalization with overlap
     ethr =  1.00E-02,  avg # of iterations =  7.1

     total cpu time spent up to now is       26.2 secs

     total energy              =   -1034.61078620 Ry
     Harris-Foulkes estimate   =   -1164.31237610 Ry
     estimated scf accuracy    <     276.58357977 Ry

     iteration #  3     ecut=   400.00 Ry     beta=0.70
     Davidson diagonalization with overlap
     ethr =  1.00E-02,  avg # of iterations =  5.7

     total cpu time spent up to now is       37.3 secs

     total energy              =   -1073.20272852 Ry
     Harris-Foulkes estimate   =   -1079.21509022 Ry
     estimated scf accuracy    <      17.87573582 Ry

     iteration #  4     ecut=   400.00 Ry     beta=0.70
     Davidson diagonalization with overlap
     ethr =  1.00E-02,  avg # of iterations =  2.1

     total cpu time spent up to now is       46.0 secs

     total energy              =   -1072.39457797 Ry
     Harris-Foulkes estimate   =   -1074.05133402 Ry
     estimated scf accuracy    <       8.56514752 Ry

     iteration #  5     ecut=   400.00 Ry     beta=0.70
     Davidson diagonalization with overlap
     ethr =  1.00E-02,  avg # of iterations =  1.0

     total cpu time spent up to now is       53.9 secs

     total energy              =   -1070.29796564 Ry
     Harris-Foulkes estimate   =   -1072.48163790 Ry
     estimated scf accuracy    <       5.31893459 Ry

     iteration #  6     ecut=   400.00 Ry     beta=0.70
     Davidson diagonalization with overlap
     ethr =  1.00E-02,  avg # of iterations =  2.0

     total cpu time spent up to now is       62.2 secs

     total energy              =   -1070.66784485 Ry
     Harris-Foulkes estimate   =   -1070.64609964 Ry
     estimated scf accuracy    <       0.99723834 Ry

     iteration #  7     ecut=   400.00 Ry     beta=0.70
     Davidson diagonalization with overlap
     ethr =  1.92E-03,  avg # of iterations =  1.6

     total cpu time spent up to now is       69.9 secs

     total energy              =   -1070.67349302 Ry
     Harris-Foulkes estimate   =   -1070.68003161 Ry
     estimated scf accuracy    <       1.05044818 Ry

     iteration #  8     ecut=   400.00 Ry     beta=0.70
     Davidson diagonalization with overlap
     ethr =  1.92E-03,  avg # of iterations =  1.0

     total cpu time spent up to now is       82.9 secs

     total energy              =   -1070.62314516 Ry
     Harris-Foulkes estimate   =   -1070.67443568 Ry
     estimated scf accuracy    <       1.02967727 Ry

     iteration #  9     ecut=   400.00 Ry     beta=0.70
     Davidson diagonalization with overlap
     ethr =  1.92E-03,  avg # of iterations =  3.0

     total cpu time spent up to now is       97.7 secs

     total energy              =   -1070.23321419 Ry
     Harris-Foulkes estimate   =   -1070.78125312 Ry
     estimated scf accuracy    <       1.77576169 Ry

     iteration # 10     ecut=   400.00 Ry     beta=0.70
     Davidson diagonalization with overlap
     ethr =  1.92E-03,  avg # of iterations =  2.1

     negative rho (up, down):  0.373E-04 0.000E+00

     total cpu time spent up to now is      107.6 secs

     total energy              =   -1070.36857709 Ry
     Harris-Foulkes estimate   =   -1070.38705883 Ry
     estimated scf accuracy    <       0.52439451 Ry

     iteration # 11     ecut=   400.00 Ry     beta=0.70
     Davidson diagonalization with overlap
     ethr =  1.01E-03,  avg # of iterations =  1.0

     total cpu time spent up to now is      115.2 secs

     total energy              =   -1070.46072492 Ry
     Harris-Foulkes estimate   =   -1070.37298162 Ry
     estimated scf accuracy    <       0.46394088 Ry

     iteration # 12     ecut=   400.00 Ry     beta=0.70
     Davidson diagonalization with overlap
     ethr =  8.92E-04,  avg # of iterations =  1.0

     total cpu time spent up to now is      122.5 secs

     total energy              =   -1070.35871605 Ry
     Harris-Foulkes estimate   =   -1070.46713649 Ry
     estimated scf accuracy    <       0.75597827 Ry

     iteration # 13     ecut=   400.00 Ry     beta=0.70
     Davidson diagonalization with overlap
     ethr =  8.92E-04,  avg # of iterations =  1.0

     total cpu time spent up to now is      132.0 secs

     total energy              =   -1070.08279847 Ry
     Harris-Foulkes estimate   =   -1070.36613136 Ry
     estimated scf accuracy    <       0.46583015 Ry

     iteration # 14     ecut=   400.00 Ry     beta=0.70
     Davidson diagonalization with overlap
     ethr =  8.92E-04,  avg # of iterations =  3.1

     total cpu time spent up to now is      145.4 secs

     total energy              =   -1070.23021943 Ry
     Harris-Foulkes estimate   =   -1070.30507192 Ry
     estimated scf accuracy    <       0.17866612 Ry

     iteration # 15     ecut=   400.00 Ry     beta=0.70
     Davidson diagonalization with overlap
     ethr =  3.44E-04,  avg # of iterations =  2.2

     total cpu time spent up to now is      151.9 secs

     total energy              =   -1070.25818561 Ry
     Harris-Foulkes estimate   =   -1070.25673694 Ry
     estimated scf accuracy    <       0.00202558 Ry

     iteration # 16     ecut=   400.00 Ry     beta=0.70
     Davidson diagonalization with overlap
     ethr =  3.90E-06,  avg # of iterations =  3.0

     total cpu time spent up to now is      159.7 secs

     total energy              =   -1070.25597229 Ry
     Harris-Foulkes estimate   =   -1070.25890320 Ry
     estimated scf accuracy    <       0.00971619 Ry

     iteration # 17     ecut=   400.00 Ry     beta=0.70
     Davidson diagonalization with overlap
     ethr =  3.90E-06,  avg # of iterations =  2.9

     total cpu time spent up to now is      167.0 secs

     total energy              =   -1070.25595656 Ry
     Harris-Foulkes estimate   =   -1070.25673674 Ry
     estimated scf accuracy    <       0.00126451 Ry

     iteration # 18     ecut=   400.00 Ry     beta=0.70
     Davidson diagonalization with overlap
     ethr =  2.43E-06,  avg # of iterations =  3.0

     total cpu time spent up to now is      172.7 secs

     total energy              =   -1070.25637791 Ry
     Harris-Foulkes estimate   =   -1070.25655561 Ry
     estimated scf accuracy    <       0.00054150 Ry

     iteration # 19     ecut=   400.00 Ry     beta=0.70
     Davidson diagonalization with overlap
     ethr =  1.04E-06,  avg # of iterations =  2.1

     total cpu time spent up to now is      177.9 secs

     total energy              =   -1070.25643121 Ry
     Harris-Foulkes estimate   =   -1070.25643015 Ry
     estimated scf accuracy    <       0.00004895 Ry

     iteration # 20     ecut=   400.00 Ry     beta=0.70
     Davidson diagonalization with overlap
     ethr =  9.41E-08,  avg # of iterations =  1.0

     total cpu time spent up to now is      182.9 secs

     total energy              =   -1070.25642601 Ry
     Harris-Foulkes estimate   =   -1070.25643186 Ry
     estimated scf accuracy    <       0.00005388 Ry

     iteration # 21     ecut=   400.00 Ry     beta=0.70
     Davidson diagonalization with overlap
     ethr =  9.41E-08,  avg # of iterations =  1.0

     total cpu time spent up to now is      190.8 secs

     total energy              =   -1070.25640733 Ry
     Harris-Foulkes estimate   =   -1070.25642639 Ry
     estimated scf accuracy    <       0.00003594 Ry

     iteration # 22     ecut=   400.00 Ry     beta=0.70
     Davidson diagonalization with overlap
     ethr =  6.91E-08,  avg # of iterations =  2.3

     total cpu time spent up to now is      200.6 secs

     total energy              =   -1070.25641714 Ry
     Harris-Foulkes estimate   =   -1070.25641810 Ry
     estimated scf accuracy    <       0.00000287 Ry

     iteration # 23     ecut=   400.00 Ry     beta=0.70
     Davidson diagonalization with overlap
     ethr =  5.53E-09,  avg # of iterations =  2.1

     total cpu time spent up to now is      213.6 secs

     total energy              =   -1070.25641741 Ry
     Harris-Foulkes estimate   =   -1070.25641748 Ry
     estimated scf accuracy    <       0.00000022 Ry

     iteration # 24     ecut=   400.00 Ry     beta=0.70
     Davidson diagonalization with overlap
     ethr =  4.31E-10,  avg # of iterations =  2.2

     total cpu time spent up to now is      222.4 secs

     total energy              =   -1070.25641743 Ry
     Harris-Foulkes estimate   =   -1070.25641743 Ry
     estimated scf accuracy    <       0.00000002 Ry

     iteration # 25     ecut=   400.00 Ry     beta=0.70
     Davidson diagonalization with overlap
     ethr =  3.79E-11,  avg # of iterations =  2.2

     total cpu time spent up to now is      236.3 secs

     total energy              =   -1070.25641743 Ry
     Harris-Foulkes estimate   =   -1070.25641743 Ry
     estimated scf accuracy    <          2.3E-09 Ry

     iteration # 26     ecut=   400.00 Ry     beta=0.70
     Davidson diagonalization with overlap
     ethr =  4.51E-12,  avg # of iterations =  2.2

     total cpu time spent up to now is      241.6 secs

     total energy              =   -1070.25641743 Ry
     Harris-Foulkes estimate   =   -1070.25641743 Ry
     estimated scf accuracy    <          1.8E-10 Ry

     iteration # 27     ecut=   400.00 Ry     beta=0.70
     Davidson diagonalization with overlap
     ethr =  3.52E-13,  avg # of iterations =  3.0

     total cpu time spent up to now is      247.7 secs

     End of self-consistent calculation

          k = 0.0000 0.0000 0.0000 ( 43413 PWs)   bands (ev):

  -114.1639-114.1637 -68.8297 -68.8264 -68.8171 -68.8171 -68.8165 -68.8165
    -9.2949  -8.5165   2.7034   2.7034   2.7864   2.8381   2.8865   2.8865
     3.8680   3.8680   4.0842   4.0842   4.3847   7.7013   7.7013   8.4071
     8.4966   8.4966

          k = 0.0000 0.0000 0.0385 ( 43401 PWs)   bands (ev):

  -114.1639-114.1637 -68.8294 -68.8267 -68.8171 -68.8171 -68.8166 -68.8166
    -9.2245  -8.5949   2.6723   2.7121   2.7121   2.7134   2.8593   2.8593
     3.8964   3.8964   4.0723   4.0723   4.8327   7.6831   7.7787   7.7787
     8.4225   8.4225

          k = 0.0000 0.0000 0.0769 ( 43454 PWs)   bands (ev):

  -114.1638-114.1638 -68.8286 -68.8275 -68.8169 -68.8169 -68.8167 -68.8167
    -9.0364  -8.7960   2.5245   2.5720   2.7433   2.7433   2.7990   2.7990
     3.9635   3.9635   4.0312   4.0312   5.7386   6.7214   7.9801   7.9801
     8.2262   8.2262

          k = 0.0000 0.0395 0.0000 ( 43364 PWs)   bands (ev):

  -114.1639-114.1637 -68.8296 -68.8264 -68.8174 -68.8172 -68.8168 -68.8166
    -9.2236  -8.4853   2.6294   2.7437   2.8232   2.8742   2.9418   2.9424
     3.8395   3.8641   4.0905   4.1460   4.3694   7.2460   7.5330   7.7850
     8.3253   8.4055

          k = 0.0000 0.0395 0.0385 ( 43380 PWs)   bands (ev):

  -114.1639-114.1637 -68.8293 -68.8267 -68.8173 -68.8171 -68.8168 -68.8166
    -9.1562  -8.5590   2.5930   2.6830   2.7540   2.8050   2.9031   2.9138
     3.8754   3.8924   4.0763   4.0990   4.8625   7.2923   7.4550   7.6184
     8.2320   8.3244

          k = 0.0000 0.0395 0.0769 ( 43415 PWs)   bands (ev):

  -114.1638-114.1638 -68.8285 -68.8275 -68.8172 -68.8170 -68.8170 -68.8168
    -8.9768  -8.7486   2.4895   2.5069   2.7892   2.7980   2.8431   2.8497
     3.9571   3.9601   4.0307   4.0402   5.7618   6.6491   7.6114   7.8400
     7.9472   8.1097

          k = 0.0000 0.0790 0.0000 ( 43390 PWs)   bands (ev):

  -114.1638-114.1637 -68.8293 -68.8266 -68.8180 -68.8174 -68.8174 -68.8167
    -9.0329  -8.4109   2.4853   2.8104   2.8385   2.9649   3.0977   3.2093
     3.7709   3.8768   4.1035   4.2925   4.3680   6.2311   6.9496   7.1087
     8.0729   8.1627

          k = 0.0000 0.0790 0.0385 ( 43390 PWs)   bands (ev):

  -114.1638-114.1637 -68.8290 -68.8269 -68.8179 -68.8175 -68.8173 -68.8168
    -8.9746  -8.4710   2.4447   2.6656   2.8551   2.9308   3.0633   3.0684
     3.8319   3.9016   4.0850   4.1603   4.9493   6.3351   6.7983   7.2141
     7.9933   8.0657

          k = 0.0000 0.0790 0.0769 ( 43413 PWs)   bands (ev):

  -114.1638-114.1637 -68.8284 -68.8276 -68.8178 -68.8176 -68.8172 -68.8169
    -8.8206  -8.6280   2.3781   2.4335   2.9058   2.9158   2.9635   2.9845
     3.9504   3.9632   4.0332   4.0677   5.7145   6.2398   6.9511   7.4842
     7.5758   7.8088

          k = 0.0000 0.1184 0.0000 ( 43428 PWs)   bands (ev):

  -114.1638-114.1637 -68.8289 -68.8269 -68.8187 -68.8182 -68.8176 -68.8169
    -8.7898  -8.3421   2.4096   2.7632   2.9257   3.1367   3.3073   3.4560
     3.7705   3.9406   4.1179   4.2940   4.5756   5.2911   6.1731   6.6087
     7.6706   7.8667

          k = 0.0000 0.1184 0.0385 ( 43377 PWs)   bands (ev):

  -114.1638-114.1637 -68.8287 -68.8271 -68.8186 -68.8182 -68.8176 -68.8169
    -8.7456  -8.3830   2.3646   2.6235   2.9536   3.0963   3.2604   3.2776
     3.8391   3.9559   4.0973   4.2225   4.9109   5.4985   6.1521   6.7398
     7.6954   7.7533

          k = 0.0000 0.1184 0.0769 ( 43353 PWs)   bands (ev):

  -114.1638-114.1637 -68.8282 -68.8277 -68.8185 -68.8183 -68.8174 -68.8171
    -8.6310  -8.4922   2.3039   2.3824   3.0338   3.0733   3.1301   3.1498
     3.9767   3.9965   4.0495   4.1130   5.2435   5.5065   6.7164   7.0677
     7.4347   7.4523

          k = 0.0000 0.1579 0.0000 ( 43326 PWs)   bands (ev):

  -114.1637-114.1637 -68.8285 -68.8272 -68.8191 -68.8187 -68.8178 -68.8170
    -8.5976  -8.3243   2.4639   2.7033   2.9667   3.3153   3.4179   3.4692
     3.8981   4.0239   4.1310   4.2842   4.5733   4.9869   5.6786   6.2531
     7.2776   7.6604

          k = 0.0000 0.1579 0.0385 ( 43346 PWs)   bands (ev):

  -114.1637-114.1637 -68.8284 -68.8274 -68.8191 -68.8187 -68.8177 -68.8170
    -8.5683  -8.3468   2.4012   2.5654   3.0039   3.2645   3.3539   3.4080
     3.9671   4.0296   4.1107   4.2568   4.5794   4.9842   6.0355   6.4068
     7.3912   7.5366

          k = 0.0000 0.1579 0.0769 ( 43345 PWs)   bands (ev):

  -114.1637-114.1637 -68.8281 -68.8277 -68.8189 -68.8188 -68.8175 -68.8172
    -8.4945  -8.4096   2.3062   2.3529   3.1101   3.2322   3.2628   3.2682
     4.0466   4.0749   4.0804   4.1798   4.6908   4.8494   6.7801   6.8043
     7.2068   7.3540

          k = 0.0342 0.0592 0.0000 ( 43379 PWs)   bands (ev):

  -114.1639-114.1637 -68.8294 -68.8266 -68.8177 -68.8175 -68.8171 -68.8167
    -9.0925  -8.4325   2.5523   2.7528   2.8803   2.8820   3.0602   3.1297
     3.7990   3.8613   4.0984   4.2652   4.3508   6.6468   6.9119   7.3755
     8.1635   8.1911

          k = 0.0342 0.0592 0.0385 ( 43382 PWs)   bands (ev):

  -114.1638-114.1637 -68.8291 -68.8268 -68.8177 -68.8174 -68.8172 -68.8168
    -9.0311  -8.4970   2.5100   2.6530   2.8393   2.8585   3.0138   3.0284
     3.8468   3.8927   4.0811   4.1452   4.9242   6.7680   6.8194   7.3482
     8.0746   8.0956

          k = 0.0342 0.0592 0.0769 ( 43405 PWs)   bands (ev):

  -114.1638-114.1638 -68.8284 -68.8276 -68.8175 -68.8174 -68.8171 -68.8169
    -8.8688  -8.6646   2.4268   2.4501   2.8493   2.8525   2.9378   2.9613
     3.9527   3.9590   4.0308   4.0607   5.7587   6.4156   7.1358   7.5234
     7.6933   7.8464

          k = 0.0342 0.0987 0.0000 ( 43388 PWs)   bands (ev):

  -114.1638-114.1637 -68.8290 -68.8268 -68.8183 -68.8180 -68.8175 -68.8169
    -8.8744  -8.3613   2.4813   2.7590   2.9058   3.0292   3.2515   3.3869
     3.7504   3.8965   4.1117   4.2999   4.5242   5.7471   6.2891   6.7136
     7.8354   7.8561

          k = 0.0342 0.0987 0.0385 ( 43375 PWs)   bands (ev):

  -114.1638-114.1637 -68.8288 -68.8271 -68.8183 -68.8180 -68.8175 -68.8170
    -8.8248  -8.4093   2.4342   2.6468   2.9045   2.9972   3.1861   3.2139
     3.8211   3.9325   4.0926   4.2103   4.9924   5.9021   6.2735   6.7641
     7.7248   7.8373

          k = 0.0342 0.0987 0.0769 ( 43373 PWs)   bands (ev):

  -114.1638-114.1637 -68.8283 -68.8276 -68.8181 -68.8180 -68.8173 -68.8171
    -8.6952  -8.5363   2.3620   2.4230   2.9362   2.9690   3.0762   3.1211
     3.9591   3.9844   4.0466   4.1024   5.5088   5.8448   6.7503   7.0344
     7.4121   7.5307

          k = 0.0342 0.1382 0.0000 ( 43383 PWs)   bands (ev):

  -114.1638-114.1637 -68.8286 -68.8272 -68.8189 -68.8185 -68.8178 -68.8171
    -8.6505  -8.3229   2.4993   2.7851   2.9400   3.2004   3.4336   3.4893
     3.8261   3.9506   4.1320   4.3816   4.5252   5.1782   5.8243   6.1014
     7.3839   7.5585

          k = 0.0342 0.1382 0.0385 ( 43352 PWs)   bands (ev):

  -114.1637-114.1637 -68.8285 -68.8273 -68.8188 -68.8185 -68.8178 -68.8172
    -8.6165  -8.3510   2.4438   2.6530   2.9616   3.1639   3.3385   3.3757
     3.8699   4.0012   4.1172   4.2972   4.6922   5.2897   5.9924   6.2828
     7.3699   7.5277

          k = 0.0342 0.1382 0.0769 ( 43345 PWs)   bands (ev):

  -114.1637-114.1637 -68.8282 -68.8277 -68.8187 -68.8186 -68.8176 -68.8173
    -8.5298  -8.4282   2.3616   2.4249   3.0406   3.1229   3.2147   3.2510
     3.9884   4.0298   4.1045   4.1811   4.9274   5.1569   6.5311   6.8198
     7.0590   7.4272

          k = 0.0342 0.1776 0.0000 ( 43330 PWs)   bands (ev):

  -114.1637-114.1637 -68.8283 -68.8274 -68.8191 -68.8187 -68.8179 -68.8171
    -8.5396  -8.3280   2.5454   2.8153   2.9519   3.2863   3.4380   3.5337
     3.8983   3.9914   4.1532   4.1955   4.7354   4.9262   5.5277   6.0722
     7.0909   7.4391

          k = 0.0342 0.1776 0.0385 ( 43343 PWs)   bands (ev):

  -114.1637-114.1637 -68.8283 -68.8275 -68.8190 -68.8187 -68.8179 -68.8172
    -8.5157  -8.3443   2.4855   2.6534   2.9774   3.2619   3.3846   3.4475
     3.9737   4.0071   4.1586   4.2120   4.6636   4.8533   5.8495   6.3321
     7.1595   7.3726

          k = 0.0342 0.1776 0.0769 ( 43356 PWs)   bands (ev):

  -114.1637-114.1637 -68.8281 -68.8278 -68.8189 -68.8188 -68.8177 -68.8174
    -8.4567  -8.3910   2.3857   2.4270   3.0712   3.2058   3.3136   3.3140
     4.0239   4.0241   4.2110   4.2338   4.6406   4.7238   6.3632   6.8543
     6.9510   7.3666

          k = 0.0684 0.1184 0.0000 ( 43359 PWs)   bands (ev):

  -114.1638-114.1637 -68.8286 -68.8271 -68.8186 -68.8185 -68.8178 -68.8173
    -8.6718  -8.3228   2.6363   2.6935   3.0315   3.0985   3.4324   3.5235
     3.7423   3.9146   4.1332   4.3918   4.5734   5.5300   5.6410   5.9704
     7.3682   7.4791

          k = 0.0684 0.1184 0.0385 ( 43371 PWs)   bands (ev):

  -114.1638-114.1637 -68.8285 -68.8273 -68.8185 -68.8185 -68.8178 -68.8173
    -8.6359  -8.3532   2.5597   2.6454   3.0145   3.0419   3.2955   3.3691
     3.8235   3.9914   4.1211   4.3119   4.8179   5.5328   6.0014   6.0040
     7.2235   7.5580

          k = 0.0684 0.1184 0.0769 ( 43352 PWs)   bands (ev):

  -114.1637-114.1637 -68.8282 -68.8277 -68.8184 -68.8184 -68.8177 -68.8175
    -8.5443  -8.4360   2.4465   2.4862   2.9977   3.0054   3.1907   3.2443
     3.9674   4.0218   4.1144   4.1923   5.1129   5.3642   6.3218   6.6522
     6.9828   7.4530

          k = 0.0684 0.1579 0.0000 ( 43333 PWs)   bands (ev):

  -114.1637-114.1637 -68.8282 -68.8275 -68.8189 -68.8186 -68.8182 -68.8175
    -8.5032  -8.3314   2.6547   2.9124   3.1142   3.1754   3.5417   3.6099
     3.8448   3.8877   4.1451   4.2128   4.6557   5.0382   5.2245   6.0533
     6.9228   7.1146

          k = 0.0684 0.1579 0.0385 ( 43348 PWs)   bands (ev):

  -114.1637-114.1637 -68.8282 -68.8276 -68.8188 -68.8186 -68.8181 -68.8176
    -8.4830  -8.3437   2.6329   2.8069   2.9757   3.1811   3.4476   3.4684
     3.8720   3.9782   4.1633   4.3133   4.6251   5.0556   5.3532   6.3644
     6.8294   7.2214

          k = 0.0684 0.1579 0.0769 ( 43330 PWs)   bands (ev):

  -114.1637-114.1637 -68.8280 -68.8278 -68.8187 -68.8186 -68.8180 -68.8178
    -8.4336  -8.3803   2.5497   2.5942   2.9674   3.0912   3.3520   3.3541
     3.9454   3.9809   4.2477   4.3403   4.7155   4.8958   5.8222   6.3505
     7.0383   7.3516

          k = 0.1026 0.1776 0.0000 ( 43326 PWs)   bands (ev):

  -114.1637-114.1637 -68.8278 -68.8278 -68.8187 -68.8185 -68.8185 -68.8178
    -8.3900  -8.3900   2.6827   3.0632   3.0632   3.4389   3.7278   3.7278
     3.7952   3.9347   3.9545   3.9545   4.6638   4.9077   4.9077   6.5650
     6.5650   6.7104

          k = 0.1026 0.1776 0.0385 ( 43347 PWs)   bands (ev):

  -114.1637-114.1637 -68.8279 -68.8279 -68.8186 -68.8184 -68.8184 -68.8179
    -8.3857  -8.3857   2.7227   2.9319   2.9319   3.2898   3.5560   3.5560
     3.8199   3.9240   4.1826   4.1826   4.8427   4.8427   4.9051   6.5192
     6.8189   6.8189

          k = 0.1026 0.1776 0.0769 ( 43323 PWs)   bands (ev):

  -114.1637-114.1637 -68.8279 -68.8279 -68.8184 -68.8184 -68.8184 -68.8181
    -8.3787  -8.3787   2.7249   2.7249   2.8436   3.0426   3.4699   3.4699
     3.8576   3.8953   4.3833   4.3833   4.7396   4.7396   5.4369   6.0344
     7.2105   7.2105

!    total energy              =   -1070.25641743 Ry
     Harris-Foulkes estimate   =   -1070.25641743 Ry
     estimated scf accuracy    <          3.7E-11 Ry

     The total energy is the sum of the following terms:

     one-electron contribution =    -759.67905219 Ry
     hartree contribution      =     403.28701432 Ry
     xc contribution           =    -206.32436075 Ry
     ewald contribution        =    -507.54001882 Ry

     convergence has been achieved in  27 iterations

     Forces acting on atoms (Ry/au):

     atom    1 type  1   force =     0.00000000    0.00000000   -0.00122389
     atom    2 type  1   force =     0.00000000    0.00000000   -0.00122389
     atom    3 type  2   force =     0.00000000    0.00000000    0.00122389
     atom    4 type  2   force =     0.00000000    0.00000000    0.00122389

     Total force =     0.002448     Total SCF correction =     0.000001


     entering subroutine stress ...

          total   stress  (Ry/bohr**3)                   (kbar)     P=  -70.32
  -0.00049705   0.00000000   0.00000000        -73.12      0.00      0.00
   0.00000000  -0.00049705   0.00000000          0.00    -73.12      0.00
   0.00000000   0.00000000  -0.00043992          0.00      0.00    -64.72


     Writing output data file Zn2O2.save
 
     init_run     :      5.93s CPU      6.38s WALL (       1 calls)
     electrons    :    201.18s CPU    240.49s WALL (       1 calls)
     forces       :      2.98s CPU      2.99s WALL (       1 calls)
     stress       :      4.18s CPU      4.20s WALL (       1 calls)

     Called by init_run:
     wfcinit      :      1.59s CPU      1.61s WALL (       1 calls)
     potinit      :      1.94s CPU      1.96s WALL (       1 calls)

     Called by electrons:
     c_bands      :     96.66s CPU     98.39s WALL (      27 calls)
     sum_band     :     22.36s CPU     22.57s WALL (      27 calls)
     v_of_rho     :      2.75s CPU      2.91s WALL (      28 calls)
     mix_rho      :      5.78s CPU      5.83s WALL (      27 calls)

     Called by c_bands:
     init_us_2    :      0.22s CPU      0.31s WALL (      55 calls)
     cegterg      :     86.52s CPU     88.23s WALL (      27 calls)

     Called by *egterg:
     h_psi        :     80.81s CPU     81.15s WALL (     101 calls)
     g_psi        :      0.34s CPU      0.33s WALL (      73 calls)
     cdiaghg      :      0.34s CPU      0.37s WALL (     100 calls)

     Called by h_psi:
     add_vuspsi   :      0.39s CPU      0.46s WALL (     101 calls)

     General routines
     calbec       :      0.49s CPU      0.44s WALL (     103 calls)
     fft          :      4.18s CPU      4.30s WALL (     119 calls)
     fftw         :     85.63s CPU     85.69s WALL (    4342 calls)
     davcio       :      0.02s CPU      7.60s WALL (      28 calls)
 
     Parallel routines
     fft_scatter  :     23.13s CPU     22.93s WALL (    4461 calls)
 
     PWSCF        :  3m42.51s CPU     5m35.85s WALL

 
   This run was terminated on:  17: 0:16  26Jun2013            

=------------------------------------------------------------------------------=
   JOB DONE.
=------------------------------------------------------------------------------=
Application 2753209 resources: utime ~46629s, stime ~539s, Rss ~118616, inblocks ~1819539, outblocks ~36480811
