TACC:  Starting up job 7666795 
TACC:  Starting parallel tasks... 

     Program PWSCF v.6.4 starts on  1May2021 at 16:17:33 

     This program is part of the open-source Quantum ESPRESSO suite
     for quantum simulation of materials; please cite
         "P. Giannozzi et al., J. Phys.:Condens. Matter 21 395502 (2009);
         "P. Giannozzi et al., J. Phys.:Condens. Matter 29 465901 (2017);
          URL http://www.quantum-espresso.org", 
     in publications or presentations arising from this work. More details at
     http://www.quantum-espresso.org/quote

     Parallel version (MPI), running on    64 processors

     MPI processes distributed on     1 nodes
     K-points division:     npool     =       4
     R & G space division:  proc/nbgrp/npool/nimage =      16
     Waiting for input...
     Reading input from standard input

     Current dimensions of program PWSCF are:
     Max number of different atomic species (ntypx) = 10
     Max number of k-points (npk) =  40000
     Max angular momentum in pseudopotentials (lmaxx) =  3

     Atomic positions and unit cell read from directory:
     ./cspbcl3.save/
 

     Subspace diagonalization in iterative solution of the eigenvalue problem:
     a serial algorithm will be used

 
     Parallelization info
     --------------------
     sticks:   dense  smooth     PW     G-vecs:    dense   smooth      PW
     Min          44      44     13                  889      889     155
     Max          46      46     14                  891      891     158
     Sum         717     717    221                14243    14243    2517
 


     bravais-lattice index     =            0
     lattice parameter (alat)  =      10.5806  a.u.
     unit-cell volume          =    1184.4808 (a.u.)^3
     number of atoms/cell      =            5
     number of atomic types    =            3
     number of electrons       =        44.00
     number of Kohn-Sham states=           60
     kinetic-energy cutoff     =      20.0000  Ry
     charge density cutoff     =      80.0000  Ry
     Exchange-correlation      = PBE ( 1  4  3  4 0 0)
     Non magnetic calculation with spin-orbit


     celldm(1)=  10.580577  celldm(2)=   0.000000  celldm(3)=   0.000000
     celldm(4)=   0.000000  celldm(5)=   0.000000  celldm(6)=   0.000000

     crystal axes: (cart. coord. in units of alat)
               a(1) = (   1.000000   0.000000   0.000000 )  
               a(2) = (   0.000000   1.000000   0.000000 )  
               a(3) = (   0.000000   0.000000   1.000000 )  

     reciprocal axes: (cart. coord. in units 2 pi/alat)
               b(1) = (  1.000000  0.000000  0.000000 )  
               b(2) = (  0.000000  1.000000  0.000000 )  
               b(3) = (  0.000000  0.000000  1.000000 )  


     PseudoPot. # 1 for Cs read from file:
     ../pseudopotentials/Cs.upf
     MD5 check sum: 0949d7fbeea01e664226101e754fa92a
     Pseudo is Norm-conserving + core correction, Zval =  9.0
     Generated using ONCVPSP code by D. R. Hamann
     Using radial grid of 2414 points, 14 beta functions with: 
                l(1) =   0
                l(2) =   0
                l(3) =   1
                l(4) =   1
                l(5) =   1
                l(6) =   1
                l(7) =   2
                l(8) =   2
                l(9) =   2
               l(10) =   2
               l(11) =   3
               l(12) =   3
               l(13) =   3
               l(14) =   3

     PseudoPot. # 2 for Pb read from file:
     ../pseudopotentials/Pb.upf
     MD5 check sum: 73abbbd201951038fc1bdacebad68d2f
     Pseudo is Norm-conserving + core correction, Zval = 14.0
     Generated using ONCVPSP code by D. R. Hamann
     Using radial grid of 1782 points, 10 beta functions with: 
                l(1) =   0
                l(2) =   0
                l(3) =   1
                l(4) =   1
                l(5) =   1
                l(6) =   1
                l(7) =   2
                l(8) =   2
                l(9) =   2
               l(10) =   2

     PseudoPot. # 3 for Cl read from file:
     ../pseudopotentials/Cl.upf
     MD5 check sum: b1ddb435c2952724bdf458cc656d2c80
     Pseudo is Norm-conserving + core correction, Zval =  7.0
     Generated using ONCVPSP code by D. R. Hamann
     Using radial grid of 1028 points, 10 beta functions with: 
                l(1) =   0
                l(2) =   0
                l(3) =   1
                l(4) =   1
                l(5) =   1
                l(6) =   1
                l(7) =   2
                l(8) =   2
                l(9) =   2
               l(10) =   2

     atomic species   valence    mass     pseudopotential
        Cs             9.00     1.00000     Cs( 1.00)
        Pb            14.00     1.00000     Pb( 1.00)
        Cl             7.00     1.00000     Cl( 1.00)

     48 Sym. Ops., with inversion, found


                                    s                        frac. trans.

      isym =  1     identity                                     

 cryst.   s( 1) = (     1          0          0      )
                  (     0          1          0      )
                  (     0          0          1      )

 cart.    s( 1) = (  1.0000000  0.0000000  0.0000000 )
                  (  0.0000000  1.0000000  0.0000000 )
                  (  0.0000000  0.0000000  1.0000000 )


      isym =  2     180 deg rotation - cart. axis [0,0,1]        

 cryst.   s( 2) = (    -1          0          0      )
                  (     0         -1          0      )
                  (     0          0          1      )

 cart.    s( 2) = ( -1.0000000  0.0000000  0.0000000 )
                  (  0.0000000 -1.0000000  0.0000000 )
                  (  0.0000000  0.0000000  1.0000000 )


      isym =  3     180 deg rotation - cart. axis [0,1,0]        

 cryst.   s( 3) = (    -1          0          0      )
                  (     0          1          0      )
                  (     0          0         -1      )

 cart.    s( 3) = ( -1.0000000  0.0000000  0.0000000 )
                  (  0.0000000  1.0000000  0.0000000 )
                  (  0.0000000  0.0000000 -1.0000000 )


      isym =  4     180 deg rotation - cart. axis [1,0,0]        

 cryst.   s( 4) = (     1          0          0      )
                  (     0         -1          0      )
                  (     0          0         -1      )

 cart.    s( 4) = (  1.0000000  0.0000000  0.0000000 )
                  (  0.0000000 -1.0000000  0.0000000 )
                  (  0.0000000  0.0000000 -1.0000000 )


      isym =  5     180 deg rotation - cart. axis [1,1,0]        

 cryst.   s( 5) = (     0          1          0      )
                  (     1          0          0      )
                  (     0          0         -1      )

 cart.    s( 5) = (  0.0000000  1.0000000  0.0000000 )
                  (  1.0000000  0.0000000  0.0000000 )
                  (  0.0000000  0.0000000 -1.0000000 )


      isym =  6     180 deg rotation - cart. axis [1,-1,0]       

 cryst.   s( 6) = (     0         -1          0      )
                  (    -1          0          0      )
                  (     0          0         -1      )

 cart.    s( 6) = (  0.0000000 -1.0000000  0.0000000 )
                  ( -1.0000000  0.0000000  0.0000000 )
                  (  0.0000000  0.0000000 -1.0000000 )


      isym =  7      90 deg rotation - cart. axis [0,0,-1]       

 cryst.   s( 7) = (     0         -1          0      )
                  (     1          0          0      )
                  (     0          0          1      )

 cart.    s( 7) = (  0.0000000  1.0000000  0.0000000 )
                  ( -1.0000000  0.0000000  0.0000000 )
                  (  0.0000000  0.0000000  1.0000000 )


      isym =  8      90 deg rotation - cart. axis [0,0,1]        

 cryst.   s( 8) = (     0          1          0      )
                  (    -1          0          0      )
                  (     0          0          1      )

 cart.    s( 8) = (  0.0000000 -1.0000000  0.0000000 )
                  (  1.0000000  0.0000000  0.0000000 )
                  (  0.0000000  0.0000000  1.0000000 )


      isym =  9     180 deg rotation - cart. axis [1,0,1]        

 cryst.   s( 9) = (     0          0          1      )
                  (     0         -1          0      )
                  (     1          0          0      )

 cart.    s( 9) = (  0.0000000  0.0000000  1.0000000 )
                  (  0.0000000 -1.0000000  0.0000000 )
                  (  1.0000000  0.0000000  0.0000000 )


      isym = 10     180 deg rotation - cart. axis [-1,0,1]       

 cryst.   s(10) = (     0          0         -1      )
                  (     0         -1          0      )
                  (    -1          0          0      )

 cart.    s(10) = (  0.0000000  0.0000000 -1.0000000 )
                  (  0.0000000 -1.0000000  0.0000000 )
                  ( -1.0000000  0.0000000  0.0000000 )


      isym = 11      90 deg rotation - cart. axis [0,1,0]        

 cryst.   s(11) = (     0          0         -1      )
                  (     0          1          0      )
                  (     1          0          0      )

 cart.    s(11) = (  0.0000000  0.0000000  1.0000000 )
                  (  0.0000000  1.0000000  0.0000000 )
                  ( -1.0000000  0.0000000  0.0000000 )


      isym = 12      90 deg rotation - cart. axis [0,-1,0]       

 cryst.   s(12) = (     0          0          1      )
                  (     0          1          0      )
                  (    -1          0          0      )

 cart.    s(12) = (  0.0000000  0.0000000 -1.0000000 )
                  (  0.0000000  1.0000000  0.0000000 )
                  (  1.0000000  0.0000000  0.0000000 )


      isym = 13     180 deg rotation - cart. axis [0,1,1]        

 cryst.   s(13) = (    -1          0          0      )
                  (     0          0          1      )
                  (     0          1          0      )

 cart.    s(13) = ( -1.0000000  0.0000000  0.0000000 )
                  (  0.0000000  0.0000000  1.0000000 )
                  (  0.0000000  1.0000000  0.0000000 )


      isym = 14     180 deg rotation - cart. axis [0,1,-1]       

 cryst.   s(14) = (    -1          0          0      )
                  (     0          0         -1      )
                  (     0         -1          0      )

 cart.    s(14) = ( -1.0000000  0.0000000  0.0000000 )
                  (  0.0000000  0.0000000 -1.0000000 )
                  (  0.0000000 -1.0000000  0.0000000 )


      isym = 15      90 deg rotation - cart. axis [-1,0,0]       

 cryst.   s(15) = (     1          0          0      )
                  (     0          0         -1      )
                  (     0          1          0      )

 cart.    s(15) = (  1.0000000  0.0000000  0.0000000 )
                  (  0.0000000  0.0000000  1.0000000 )
                  (  0.0000000 -1.0000000  0.0000000 )


      isym = 16      90 deg rotation - cart. axis [1,0,0]        

 cryst.   s(16) = (     1          0          0      )
                  (     0          0          1      )
                  (     0         -1          0      )

 cart.    s(16) = (  1.0000000  0.0000000  0.0000000 )
                  (  0.0000000  0.0000000 -1.0000000 )
                  (  0.0000000  1.0000000  0.0000000 )


      isym = 17     120 deg rotation - cart. axis [-1,-1,-1]     

 cryst.   s(17) = (     0          0          1      )
                  (     1          0          0      )
                  (     0          1          0      )

 cart.    s(17) = (  0.0000000  1.0000000  0.0000000 )
                  (  0.0000000  0.0000000  1.0000000 )
                  (  1.0000000  0.0000000  0.0000000 )


      isym = 18     120 deg rotation - cart. axis [-1,1,1]       

 cryst.   s(18) = (     0          0         -1      )
                  (    -1          0          0      )
                  (     0          1          0      )

 cart.    s(18) = (  0.0000000 -1.0000000  0.0000000 )
                  (  0.0000000  0.0000000  1.0000000 )
                  ( -1.0000000  0.0000000  0.0000000 )


      isym = 19     120 deg rotation - cart. axis [1,1,-1]       

 cryst.   s(19) = (     0          0         -1      )
                  (     1          0          0      )
                  (     0         -1          0      )

 cart.    s(19) = (  0.0000000  1.0000000  0.0000000 )
                  (  0.0000000  0.0000000 -1.0000000 )
                  ( -1.0000000  0.0000000  0.0000000 )


      isym = 20     120 deg rotation - cart. axis [1,-1,1]       

 cryst.   s(20) = (     0          0          1      )
                  (    -1          0          0      )
                  (     0         -1          0      )

 cart.    s(20) = (  0.0000000 -1.0000000  0.0000000 )
                  (  0.0000000  0.0000000 -1.0000000 )
                  (  1.0000000  0.0000000  0.0000000 )


      isym = 21     120 deg rotation - cart. axis [1,1,1]        

 cryst.   s(21) = (     0          1          0      )
                  (     0          0          1      )
                  (     1          0          0      )

 cart.    s(21) = (  0.0000000  0.0000000  1.0000000 )
                  (  1.0000000  0.0000000  0.0000000 )
                  (  0.0000000  1.0000000  0.0000000 )


      isym = 22     120 deg rotation - cart. axis [-1,1,-1]      

 cryst.   s(22) = (     0         -1          0      )
                  (     0          0         -1      )
                  (     1          0          0      )

 cart.    s(22) = (  0.0000000  0.0000000  1.0000000 )
                  ( -1.0000000  0.0000000  0.0000000 )
                  (  0.0000000 -1.0000000  0.0000000 )


      isym = 23     120 deg rotation - cart. axis [1,-1,-1]      

 cryst.   s(23) = (     0         -1          0      )
                  (     0          0          1      )
                  (    -1          0          0      )

 cart.    s(23) = (  0.0000000  0.0000000 -1.0000000 )
                  ( -1.0000000  0.0000000  0.0000000 )
                  (  0.0000000  1.0000000  0.0000000 )


      isym = 24     120 deg rotation - cart. axis [-1,-1,1]      

 cryst.   s(24) = (     0          1          0      )
                  (     0          0         -1      )
                  (    -1          0          0      )

 cart.    s(24) = (  0.0000000  0.0000000 -1.0000000 )
                  (  1.0000000  0.0000000  0.0000000 )
                  (  0.0000000 -1.0000000  0.0000000 )


      isym = 25     inversion                                    

 cryst.   s(25) = (    -1          0          0      )
                  (     0         -1          0      )
                  (     0          0         -1      )

 cart.    s(25) = ( -1.0000000  0.0000000  0.0000000 )
                  (  0.0000000 -1.0000000  0.0000000 )
                  (  0.0000000  0.0000000 -1.0000000 )


      isym = 26     inv. 180 deg rotation - cart. axis [0,0,1]   

 cryst.   s(26) = (     1          0          0      )
                  (     0          1          0      )
                  (     0          0         -1      )

 cart.    s(26) = (  1.0000000  0.0000000  0.0000000 )
                  (  0.0000000  1.0000000  0.0000000 )
                  (  0.0000000  0.0000000 -1.0000000 )


      isym = 27     inv. 180 deg rotation - cart. axis [0,1,0]   

 cryst.   s(27) = (     1          0          0      )
                  (     0         -1          0      )
                  (     0          0          1      )

 cart.    s(27) = (  1.0000000  0.0000000  0.0000000 )
                  (  0.0000000 -1.0000000  0.0000000 )
                  (  0.0000000  0.0000000  1.0000000 )


      isym = 28     inv. 180 deg rotation - cart. axis [1,0,0]   

 cryst.   s(28) = (    -1          0          0      )
                  (     0          1          0      )
                  (     0          0          1      )

 cart.    s(28) = ( -1.0000000  0.0000000  0.0000000 )
                  (  0.0000000  1.0000000  0.0000000 )
                  (  0.0000000  0.0000000  1.0000000 )


      isym = 29     inv. 180 deg rotation - cart. axis [1,1,0]   

 cryst.   s(29) = (     0         -1          0      )
                  (    -1          0          0      )
                  (     0          0          1      )

 cart.    s(29) = (  0.0000000 -1.0000000  0.0000000 )
                  ( -1.0000000  0.0000000  0.0000000 )
                  (  0.0000000  0.0000000  1.0000000 )


      isym = 30     inv. 180 deg rotation - cart. axis [1,-1,0]  

 cryst.   s(30) = (     0          1          0      )
                  (     1          0          0      )
                  (     0          0          1      )

 cart.    s(30) = (  0.0000000  1.0000000  0.0000000 )
                  (  1.0000000  0.0000000  0.0000000 )
                  (  0.0000000  0.0000000  1.0000000 )


      isym = 31     inv.  90 deg rotation - cart. axis [0,0,-1]  

 cryst.   s(31) = (     0          1          0      )
                  (    -1          0          0      )
                  (     0          0         -1      )

 cart.    s(31) = (  0.0000000 -1.0000000  0.0000000 )
                  (  1.0000000  0.0000000  0.0000000 )
                  (  0.0000000  0.0000000 -1.0000000 )


      isym = 32     inv.  90 deg rotation - cart. axis [0,0,1]   

 cryst.   s(32) = (     0         -1          0      )
                  (     1          0          0      )
                  (     0          0         -1      )

 cart.    s(32) = (  0.0000000  1.0000000  0.0000000 )
                  ( -1.0000000  0.0000000  0.0000000 )
                  (  0.0000000  0.0000000 -1.0000000 )


      isym = 33     inv. 180 deg rotation - cart. axis [1,0,1]   

 cryst.   s(33) = (     0          0         -1      )
                  (     0          1          0      )
                  (    -1          0          0      )

 cart.    s(33) = (  0.0000000  0.0000000 -1.0000000 )
                  (  0.0000000  1.0000000  0.0000000 )
                  ( -1.0000000  0.0000000  0.0000000 )


      isym = 34     inv. 180 deg rotation - cart. axis [-1,0,1]  

 cryst.   s(34) = (     0          0          1      )
                  (     0          1          0      )
                  (     1          0          0      )

 cart.    s(34) = (  0.0000000  0.0000000  1.0000000 )
                  (  0.0000000  1.0000000  0.0000000 )
                  (  1.0000000  0.0000000  0.0000000 )


      isym = 35     inv.  90 deg rotation - cart. axis [0,1,0]   

 cryst.   s(35) = (     0          0          1      )
                  (     0         -1          0      )
                  (    -1          0          0      )

 cart.    s(35) = (  0.0000000  0.0000000 -1.0000000 )
                  (  0.0000000 -1.0000000  0.0000000 )
                  (  1.0000000  0.0000000  0.0000000 )


      isym = 36     inv.  90 deg rotation - cart. axis [0,-1,0]  

 cryst.   s(36) = (     0          0         -1      )
                  (     0         -1          0      )
                  (     1          0          0      )

 cart.    s(36) = (  0.0000000  0.0000000  1.0000000 )
                  (  0.0000000 -1.0000000  0.0000000 )
                  ( -1.0000000  0.0000000  0.0000000 )


      isym = 37     inv. 180 deg rotation - cart. axis [0,1,1]   

 cryst.   s(37) = (     1          0          0      )
                  (     0          0         -1      )
                  (     0         -1          0      )

 cart.    s(37) = (  1.0000000  0.0000000  0.0000000 )
                  (  0.0000000  0.0000000 -1.0000000 )
                  (  0.0000000 -1.0000000  0.0000000 )


      isym = 38     inv. 180 deg rotation - cart. axis [0,1,-1]  

 cryst.   s(38) = (     1          0          0      )
                  (     0          0          1      )
                  (     0          1          0      )

 cart.    s(38) = (  1.0000000  0.0000000  0.0000000 )
                  (  0.0000000  0.0000000  1.0000000 )
                  (  0.0000000  1.0000000  0.0000000 )


      isym = 39     inv.  90 deg rotation - cart. axis [-1,0,0]  

 cryst.   s(39) = (    -1          0          0      )
                  (     0          0          1      )
                  (     0         -1          0      )

 cart.    s(39) = ( -1.0000000  0.0000000  0.0000000 )
                  (  0.0000000  0.0000000 -1.0000000 )
                  (  0.0000000  1.0000000  0.0000000 )


      isym = 40     inv.  90 deg rotation - cart. axis [1,0,0]   

 cryst.   s(40) = (    -1          0          0      )
                  (     0          0         -1      )
                  (     0          1          0      )

 cart.    s(40) = ( -1.0000000  0.0000000  0.0000000 )
                  (  0.0000000  0.0000000  1.0000000 )
                  (  0.0000000 -1.0000000  0.0000000 )


      isym = 41     inv. 120 deg rotation - cart. axis [-1,-1,-1]

 cryst.   s(41) = (     0          0         -1      )
                  (    -1          0          0      )
                  (     0         -1          0      )

 cart.    s(41) = (  0.0000000 -1.0000000  0.0000000 )
                  (  0.0000000  0.0000000 -1.0000000 )
                  ( -1.0000000  0.0000000  0.0000000 )


      isym = 42     inv. 120 deg rotation - cart. axis [-1,1,1]  

 cryst.   s(42) = (     0          0          1      )
                  (     1          0          0      )
                  (     0         -1          0      )

 cart.    s(42) = (  0.0000000  1.0000000  0.0000000 )
                  (  0.0000000  0.0000000 -1.0000000 )
                  (  1.0000000  0.0000000  0.0000000 )


      isym = 43     inv. 120 deg rotation - cart. axis [1,1,-1]  

 cryst.   s(43) = (     0          0          1      )
                  (    -1          0          0      )
                  (     0          1          0      )

 cart.    s(43) = (  0.0000000 -1.0000000  0.0000000 )
                  (  0.0000000  0.0000000  1.0000000 )
                  (  1.0000000  0.0000000  0.0000000 )


      isym = 44     inv. 120 deg rotation - cart. axis [1,-1,1]  

 cryst.   s(44) = (     0          0         -1      )
                  (     1          0          0      )
                  (     0          1          0      )

 cart.    s(44) = (  0.0000000  1.0000000  0.0000000 )
                  (  0.0000000  0.0000000  1.0000000 )
                  ( -1.0000000  0.0000000  0.0000000 )


      isym = 45     inv. 120 deg rotation - cart. axis [1,1,1]   

 cryst.   s(45) = (     0         -1          0      )
                  (     0          0         -1      )
                  (    -1          0          0      )

 cart.    s(45) = (  0.0000000  0.0000000 -1.0000000 )
                  ( -1.0000000  0.0000000  0.0000000 )
                  (  0.0000000 -1.0000000  0.0000000 )


      isym = 46     inv. 120 deg rotation - cart. axis [-1,1,-1] 

 cryst.   s(46) = (     0          1          0      )
                  (     0          0          1      )
                  (    -1          0          0      )

 cart.    s(46) = (  0.0000000  0.0000000 -1.0000000 )
                  (  1.0000000  0.0000000  0.0000000 )
                  (  0.0000000  1.0000000  0.0000000 )


      isym = 47     inv. 120 deg rotation - cart. axis [1,-1,-1] 

 cryst.   s(47) = (     0          1          0      )
                  (     0          0         -1      )
                  (     1          0          0      )

 cart.    s(47) = (  0.0000000  0.0000000  1.0000000 )
                  (  1.0000000  0.0000000  0.0000000 )
                  (  0.0000000 -1.0000000  0.0000000 )


      isym = 48     inv. 120 deg rotation - cart. axis [-1,-1,1] 

 cryst.   s(48) = (     0         -1          0      )
                  (     0          0          1      )
                  (     1          0          0      )

 cart.    s(48) = (  0.0000000  0.0000000  1.0000000 )
                  ( -1.0000000  0.0000000  0.0000000 )
                  (  0.0000000  1.0000000  0.0000000 )


   Cartesian axes

     site n.     atom                  positions (alat units)
         1           Cs  tau(   1) = (   0.5000000   0.5000000   0.5000000  )
         2           Pb  tau(   2) = (   0.0000000   0.0000000   0.0000000  )
         3           Cl  tau(   3) = (   0.5000000   0.0000000   0.0000000  )
         4           Cl  tau(   4) = (   0.0000000   0.5000000   0.0000000  )
         5           Cl  tau(   5) = (   0.0000000   0.0000000   0.5000000  )

   Crystallographic axes

     site n.     atom                  positions (cryst. coord.)
         1           Cs  tau(   1) = (  0.5000000  0.5000000  0.5000000  )
         2           Pb  tau(   2) = (  0.0000000  0.0000000  0.0000000  )
         3           Cl  tau(   3) = (  0.5000000  0.0000000  0.0000000  )
         4           Cl  tau(   4) = (  0.0000000  0.5000000  0.0000000  )
         5           Cl  tau(   5) = (  0.0000000  0.0000000  0.5000000  )

     number of k points=    20
                       cart. coord. in units 2pi/alat
        k(    1) = (   0.0000000   0.0000000   0.0000000), wk =   0.0046296
        k(    2) = (   0.0000000   0.0000000   0.1666667), wk =   0.0277778
        k(    3) = (   0.0000000   0.0000000   0.3333333), wk =   0.0277778
        k(    4) = (   0.0000000   0.0000000   0.5000000), wk =   0.0138889
        k(    5) = (   0.0000000   0.1666667   0.1666667), wk =   0.0555556
        k(    6) = (   0.0000000   0.1666667   0.3333333), wk =   0.1111111
        k(    7) = (   0.0000000   0.1666667   0.5000000), wk =   0.0555556
        k(    8) = (   0.0000000   0.3333333   0.3333333), wk =   0.0555556
        k(    9) = (   0.0000000   0.3333333   0.5000000), wk =   0.0555556
        k(   10) = (   0.0000000   0.5000000   0.5000000), wk =   0.0138889
        k(   11) = (   0.1666667   0.1666667   0.1666667), wk =   0.0370370
        k(   12) = (   0.1666667   0.1666667   0.3333333), wk =   0.1111111
        k(   13) = (   0.1666667   0.1666667   0.5000000), wk =   0.0555556
        k(   14) = (   0.1666667   0.3333333   0.3333333), wk =   0.1111111
        k(   15) = (   0.1666667   0.3333333   0.5000000), wk =   0.1111111
        k(   16) = (   0.1666667   0.5000000   0.5000000), wk =   0.0277778
        k(   17) = (   0.3333333   0.3333333   0.3333333), wk =   0.0370370
        k(   18) = (   0.3333333   0.3333333   0.5000000), wk =   0.0555556
        k(   19) = (   0.3333333   0.5000000   0.5000000), wk =   0.0277778
        k(   20) = (   0.5000000   0.5000000   0.5000000), wk =   0.0046296

                       cryst. coord.
        k(    1) = (   0.0000000   0.0000000   0.0000000), wk =   0.0046296
        k(    2) = (   0.0000000   0.0000000   0.1666667), wk =   0.0277778
        k(    3) = (   0.0000000   0.0000000   0.3333333), wk =   0.0277778
        k(    4) = (   0.0000000   0.0000000   0.5000000), wk =   0.0138889
        k(    5) = (   0.0000000   0.1666667   0.1666667), wk =   0.0555556
        k(    6) = (   0.0000000   0.1666667   0.3333333), wk =   0.1111111
        k(    7) = (   0.0000000   0.1666667   0.5000000), wk =   0.0555556
        k(    8) = (   0.0000000   0.3333333   0.3333333), wk =   0.0555556
        k(    9) = (   0.0000000   0.3333333   0.5000000), wk =   0.0555556
        k(   10) = (   0.0000000   0.5000000   0.5000000), wk =   0.0138889
        k(   11) = (   0.1666667   0.1666667   0.1666667), wk =   0.0370370
        k(   12) = (   0.1666667   0.1666667   0.3333333), wk =   0.1111111
        k(   13) = (   0.1666667   0.1666667   0.5000000), wk =   0.0555556
        k(   14) = (   0.1666667   0.3333333   0.3333333), wk =   0.1111111
        k(   15) = (   0.1666667   0.3333333   0.5000000), wk =   0.1111111
        k(   16) = (   0.1666667   0.5000000   0.5000000), wk =   0.0277778
        k(   17) = (   0.3333333   0.3333333   0.3333333), wk =   0.0370370
        k(   18) = (   0.3333333   0.3333333   0.5000000), wk =   0.0555556
        k(   19) = (   0.3333333   0.5000000   0.5000000), wk =   0.0277778
        k(   20) = (   0.5000000   0.5000000   0.5000000), wk =   0.0046296

     Dense  grid:    14243 G-vectors     FFT dimensions: (  32,  32,  32)

     Dynamical RAM for                 wfc:       0.20 MB

     Dynamical RAM for     wfc (w. buffer):       0.20 MB

     Dynamical RAM for           str. fact:       0.04 MB

     Dynamical RAM for           local pot:       0.00 MB

     Dynamical RAM for          nlocal pot:       0.34 MB

     Dynamical RAM for                qrad:      25.40 MB

     Dynamical RAM for          rho,v,vnew:       0.35 MB

     Dynamical RAM for           G-vectors:       0.06 MB

     Dynamical RAM for          h,s,v(r/c):       2.64 MB

     Dynamical RAM for          <psi|beta>:       0.36 MB

     Dynamical RAM for                 psi:       0.81 MB

     Dynamical RAM for                hpsi:       0.81 MB

     Dynamical RAM for      wfcinit/wfcrot:       0.39 MB

     Estimated static dynamical RAM per process >      26.57 MB

     Estimated max dynamical RAM per process >      31.19 MB

     Estimated total dynamical RAM >       1.95 GB

     Check: negative core charge=   -0.000022

     The potential is recalculated from file :
     ./cspbcl3.save/charge-density


     negative rho (up, down):  2.734E-03 0.000E+00
     Starting wfcs are   52 randomized atomic wfcs +    8 random wfcs

     Band Structure Calculation
     Davidson diagonalization with overlap

     Computing kpt #:     1
     total cpu time spent up to now is        7.9 secs

     Computing kpt #:     2
     total cpu time spent up to now is        9.7 secs

     Computing kpt #:     3
     total cpu time spent up to now is       11.2 secs

     Computing kpt #:     4
     total cpu time spent up to now is       12.9 secs

     Computing kpt #:     5
     total cpu time spent up to now is       14.5 secs

     ethr =  2.27E-09,  avg # of iterations = 21.3

     total cpu time spent up to now is       14.5 secs

     End of band structure calculation

          k = 0.0000 0.0000 0.0000 (  1791 PWs)   bands (ev):

   -17.1001 -17.1001 -10.5547 -10.5547 -10.3370 -10.3370 -10.3370 -10.3370
    -8.5937  -8.5937  -8.5937  -8.5937  -7.0361  -7.0361  -6.8298  -6.8298
    -6.8298  -6.8298  -4.9048  -4.9048  -3.3543  -3.3543  -3.3543  -3.3543
    -2.1877  -2.1877  -0.7118  -0.7118  -0.3249  -0.3249  -0.3249  -0.3249
     1.5977   1.5977   1.5977   1.5977   1.6261   1.6261   1.6551   1.6551
     1.7793   1.7793   1.7793   1.7793   7.5936   7.5936   8.4665   8.4665
     8.4665   8.4665   9.1135   9.1135   9.5605   9.5605   9.5605   9.5605
     9.6226   9.6226  11.0021  11.0021

          k = 0.0000 0.0000 0.1667 (  1811 PWs)   bands (ev):

   -17.1000 -17.1000 -10.5361 -10.5361 -10.3354 -10.3354 -10.3000 -10.3000
    -8.7745  -8.7745  -8.6970  -8.6970  -7.1116  -7.1116  -7.0894  -7.0894
    -6.9124  -6.9124  -4.9072  -4.9072  -3.3529  -3.3529  -3.3492  -3.3492
    -2.5612  -2.5612  -0.5979  -0.5979  -0.3098  -0.3098   0.2235   0.2235
     1.5724   1.5724   1.5745   1.5745   1.6197   1.6197   1.6331   1.6331
     1.7536   1.7536   1.7887   1.7887   7.8565   7.8565   8.6465   8.6465
     8.6554   8.6554   8.7650   8.7650   9.6460   9.6460   9.7221   9.7221
     9.7557   9.7557  10.5970  10.5970

          k = 0.0000 0.0000 0.3333 (  1783 PWs)   bands (ev):

   -17.0981 -17.0981 -10.4913 -10.4913 -10.2926 -10.2926 -10.1355 -10.1355
    -8.6467  -8.6467  -8.6147  -8.6147  -6.9847  -6.9847  -6.9706  -6.9706
    -6.8810  -6.8810  -4.8919  -4.8919  -3.3311  -3.3311  -3.3304  -3.3304
    -2.9721  -2.9721  -0.5365  -0.5365  -0.2791  -0.2791   0.9398   0.9398
     1.5205   1.5205   1.5303   1.5303   1.6046   1.6046   1.6070   1.6070
     1.6918   1.6918   2.2190   2.2190   7.6994   7.6994   8.5185   8.5185
     9.0955   9.0955   9.2478   9.2478   9.6194   9.6194   9.8462   9.8462
     9.8878   9.8878  10.6578  10.6578

          k = 0.0000 0.0000 0.5000 (  1800 PWs)   bands (ev):

   -17.0980 -17.0980 -10.4927 -10.4927 -10.2650 -10.2650 -10.0815 -10.0815
    -8.8287  -8.8287  -8.7213  -8.7213  -7.1090  -7.1090  -7.1064  -7.1064
    -6.9880  -6.9880  -4.8936  -4.8936  -3.3291  -3.3291  -3.3254  -3.3254
    -3.1185  -3.1185  -0.5128  -0.5128  -0.2637  -0.2637   1.0450   1.0450
     1.4938   1.4938   1.5075   1.5075   1.5866   1.5866   1.6050   1.6050
     1.6451   1.6451   2.8159   2.8159   6.9804   6.9804   8.8255   8.8255
     9.3585   9.3585   9.4687   9.4687   9.8646   9.8646   9.9017   9.9017
     9.9978   9.9978  11.0411  11.0411

          k = 0.0000 0.1667 0.1667 (  1789 PWs)   bands (ev):

   -17.0988 -17.0988 -10.4816 -10.4816 -10.2885 -10.2885 -10.2620 -10.2620
    -8.6681  -8.6681  -8.5885  -8.5885  -7.0056  -7.0056  -6.9684  -6.9684
    -6.8530  -6.8530  -4.8992  -4.8992  -3.3493  -3.3493  -3.3380  -3.3380
    -2.8765  -2.8765  -0.4720  -0.4720  -0.0074  -0.0074   0.4175   0.4175
     1.4686   1.4686   1.5758   1.5758   1.6166   1.6166   1.6613   1.6613
     1.7653   1.7653   1.8117   1.8117   8.0697   8.0697   8.4644   8.4644
     8.8151   8.8151   8.8617   8.8617   9.7147   9.7147   9.7960   9.7960
     9.8232   9.8232  10.4032  10.4032

          k = 0.0000 0.1667 0.3333 (  1789 PWs)   bands (ev):

   -17.0978 -17.0978 -10.4632 -10.4632 -10.2616 -10.2616 -10.1453 -10.1453
    -8.7215  -8.7215  -8.6530  -8.6530  -7.0595  -7.0595  -7.0005  -7.0005
    -6.9228  -6.9228  -4.8951  -4.8951  -3.3433  -3.3433  -3.3287  -3.3287
    -3.2624  -3.2624  -0.4055  -0.4055   0.1625   0.1625   0.9352   0.9352
     1.3915   1.3915   1.5431   1.5431   1.5981   1.5981   1.6513   1.6513
     1.7748   1.7748   2.2744   2.2744   7.5295   7.5295   8.6656   8.6656
     9.1654   9.1654   9.3093   9.3093   9.4556   9.4556   9.7520   9.7520
    10.0243  10.0243  10.5726  10.5726

          k = 0.0000 0.1667 0.5000 (  1798 PWs)   bands (ev):

   -17.0975 -17.0975 -10.4467 -10.4467 -10.2785 -10.2785 -10.0806 -10.0806
    -8.8191  -8.8191  -8.7357  -8.7357  -7.1383  -7.1383  -7.0786  -7.0786
    -6.9850  -6.9850  -4.8965  -4.8965  -3.4041  -3.4041  -3.3374  -3.3374
    -3.3270  -3.3270  -0.3792  -0.3792   0.1989   0.1989   1.0059   1.0059
     1.3875   1.3875   1.5318   1.5318   1.5682   1.5682   1.6467   1.6467
     1.7564   1.7564   2.8842   2.8842   6.8267   6.8267   8.8919   8.8919
     9.2251   9.2251   9.5110   9.5110   9.7060   9.7060   9.8604   9.8604
    10.1259  10.1259  10.7913  10.7913

          k = 0.0000 0.3333 0.3333 (  1804 PWs)   bands (ev):

   -17.0972 -17.0972 -10.4323 -10.4323 -10.1762 -10.1762 -10.1644 -10.1644
    -8.8707  -8.8707  -8.7705  -8.7705  -7.1803  -7.1803  -7.1149  -7.1149
    -7.0433  -7.0433  -4.9033  -4.9033  -3.6513  -3.6513  -3.3576  -3.3576
    -3.3287  -3.3287  -0.3268  -0.3268   0.8992   0.8992   0.9534   0.9534
     1.3284   1.3284   1.5018   1.5018   1.5423   1.5423   1.6864   1.6864
     1.9315   1.9315   2.6584   2.6584   6.9840   6.9840   8.2804   8.2804
     9.2394   9.2394   9.4781   9.4781   9.5893   9.5893   9.9280   9.9280
    10.3134  10.3134  10.4591  10.4591

          k = 0.0000 0.3333 0.5000 (  1796 PWs)   bands (ev):

   -17.0964 -17.0964 -10.3906 -10.3906 -10.1628 -10.1628 -10.0800 -10.0800
    -8.8568  -8.8568  -8.7687  -8.7687  -7.1420  -7.1420  -7.0915  -7.0915
    -7.0747  -7.0747  -4.9026  -4.9026  -3.7912  -3.7912  -3.3616  -3.3616
    -3.3277  -3.3277  -0.2922  -0.2922   0.9121   0.9121   1.1043   1.1043
     1.3868   1.3868   1.4879   1.4879   1.5048   1.5048   1.7316   1.7316
     1.9533   1.9533   3.1839   3.1839   6.4182   6.4182   7.9418   7.9418
     9.4085   9.4085   9.6607   9.6607   9.7562   9.7562   9.9602   9.9602
    10.4177  10.4177  10.6234  10.6234

          k = 0.0000 0.5000 0.5000 (  1772 PWs)   bands (ev):

   -17.0952 -17.0952 -10.3716 -10.3716 -10.0722 -10.0722 -10.0559 -10.0559
    -8.7547  -8.7547  -8.6571  -8.6571  -7.0593  -7.0593  -7.0028  -7.0028
    -6.9577  -6.9577  -4.8991  -4.8991  -3.9258  -3.9258  -3.3681  -3.3681
    -3.3239  -3.3239  -0.2524  -0.2524   0.8702   0.8702   1.3602   1.3602
     1.4334   1.4334   1.4619   1.4619   1.4735   1.4735   1.8842   1.8842
     2.0368   2.0368   3.5973   3.5973   6.0001   6.0001   7.3893   7.3893
     9.3127   9.3127   9.6816   9.6816   9.9254   9.9254  10.3898  10.3898
    10.5782  10.5782  10.6021  10.6021

          k = 0.1667 0.1667 0.1667 (  1791 PWs)   bands (ev):

   -17.0983 -17.0983 -10.4524 -10.4524 -10.2607 -10.2607 -10.2487 -10.2487
    -8.6978  -8.6978  -8.6217  -8.6217  -7.0443  -7.0443  -6.9457  -6.9457
    -6.9412  -6.9412  -4.8993  -4.8993  -3.3553  -3.3553  -3.3333  -3.3333
    -3.1623  -3.1623  -0.1502  -0.1502   0.1074   0.1074   0.5545   0.5545
     1.4456   1.4456   1.4679   1.4679   1.6630   1.6630   1.7238   1.7238
     1.7924   1.7924   1.8109   1.8109   8.1074   8.1074   8.3480   8.3480
     8.9434   8.9434   9.0018   9.0018   9.6551   9.6551   9.6639   9.6639
    10.0777  10.0777  10.3379  10.3379

          k = 0.1667 0.1667 0.3333 (  1790 PWs)   bands (ev):

   -17.0973 -17.0973 -10.4150 -10.4150 -10.2483 -10.2483 -10.1513 -10.1513
    -8.7593  -8.7593  -8.6638  -8.6638  -7.0845  -7.0845  -7.0201  -7.0201
    -6.9499  -6.9499  -4.8988  -4.8988  -3.5384  -3.5384  -3.3524  -3.3524
    -3.3270  -3.3270  -0.0092  -0.0092   0.3145   0.3145   0.9360   0.9360
     1.3365   1.3365   1.4532   1.4532   1.6812   1.6812   1.7421   1.7421
     1.7946   1.7946   2.3211   2.3211   7.3560   7.3560   8.6773   8.6773
     9.0233   9.0233   9.2944   9.2944   9.5040   9.5040   9.6208   9.6208
    10.2170  10.2170  10.6075  10.6075

          k = 0.1667 0.1667 0.5000 (  1774 PWs)   bands (ev):

   -17.0963 -17.0963 -10.3703 -10.3703 -10.2473 -10.2473 -10.0640 -10.0640
    -8.6903  -8.6903  -8.6348  -8.6348  -7.0223  -7.0223  -6.9833  -6.9833
    -6.8884  -6.8884  -4.8949  -4.8949  -3.6681  -3.6681  -3.3462  -3.3462
    -3.3290  -3.3290   0.0287   0.0287   0.3739   0.3739   0.9996   0.9996
     1.2894   1.2894   1.5019   1.5019   1.6494   1.6494   1.7181   1.7181
     1.7982   1.7982   2.9496   2.9496   6.6751   6.6751   8.6612   8.6612
     9.2172   9.2172   9.2827   9.2827   9.6623   9.6623   9.9267   9.9267
    10.2949  10.2949  10.8099  10.8099

          k = 0.1667 0.3333 0.3333 (  1786 PWs)   bands (ev):

   -17.0962 -17.0962 -10.3324 -10.3324 -10.1734 -10.1734 -10.1425 -10.1425
    -8.7902  -8.7902  -8.6994  -8.6994  -7.1119  -7.1119  -7.0258  -7.0258
    -6.9970  -6.9970  -4.9043  -4.9043  -3.9095  -3.9095  -3.3672  -3.3672
    -3.3359  -3.3359   0.1848   0.1848   0.9296   0.9296   0.9847   0.9847
     1.2645   1.2645   1.3996   1.3996   1.7013   1.7013   1.8001   1.8001
     1.9313   1.9313   2.7009   2.7009   6.8271   6.8271   8.1099   8.1099
     8.8002   8.8002   9.3534   9.3534   9.7616   9.7616   9.8929   9.8929
    10.4734  10.4734  10.5572  10.5572

          k = 0.1667 0.3333 0.5000 (  1766 PWs)   bands (ev):

   -17.0951 -17.0951 -10.2993 -10.2993 -10.1424 -10.1424 -10.0579 -10.0579
    -8.6960  -8.6960  -8.6363  -8.6363  -7.0085  -7.0085  -6.9698  -6.9698
    -6.9423  -6.9423  -4.9022  -4.9022  -4.0455  -4.0455  -3.3678  -3.3678
    -3.3404  -3.3404   0.2341   0.2341   0.9579   0.9579   1.1169   1.1169
     1.2497   1.2497   1.5072   1.5072   1.6866   1.6866   1.8020   1.8020
     1.9582   1.9582   3.2404   3.2404   6.2717   6.2717   7.7627   7.7627
     8.7149   8.7149   9.5887   9.5887   9.9636   9.9636  10.0495  10.0495
    10.4373  10.4373  10.4728  10.4728

          k = 0.1667 0.5000 0.5000 (  1784 PWs)   bands (ev):

   -17.0953 -17.0953 -10.3184 -10.3184 -10.0810 -10.0810 -10.0643 -10.0643
    -8.8419  -8.8419  -8.7630  -8.7630  -7.1262  -7.1262  -7.0834  -7.0834
    -7.0573  -7.0573  -4.9128  -4.9128  -4.1879  -4.1879  -3.3831  -3.3831
    -3.3505  -3.3505   0.2868   0.2868   0.9288   0.9288   1.2293   1.2293
     1.2554   1.2554   1.6649   1.6649   1.7120   1.7120   1.8820   1.8820
     2.0401   2.0401   3.6559   3.6559   5.8527   5.8527   7.2200   7.2200
     8.5575   8.5575   9.8968   9.8968   9.9536   9.9536  10.2657  10.2657
    10.2724  10.2724  10.3256  10.3256

          k = 0.3333 0.3333 0.3333 (  1794 PWs)   bands (ev):

   -17.0957 -17.0957 -10.2117 -10.2117 -10.1532 -10.1532 -10.1423 -10.1423
    -8.8893  -8.8893  -8.8025  -8.8025  -7.1897  -7.1897  -7.1072  -7.1072
    -7.0910  -7.0910  -4.9193  -4.9193  -4.2879  -4.2879  -3.3897  -3.3897
    -3.3638  -3.3638   0.9617   0.9617   1.0214   1.0214   1.0832   1.0832
     1.2471   1.2471   1.2862   1.2862   1.8755   1.8755   1.9397   1.9397
     1.9477   1.9477   3.0057   3.0057   6.3740   6.3740   7.7654   7.7654
     7.8560   7.8560   9.3948   9.3948   9.9467   9.9467  10.0330  10.0330
    10.3875  10.3875  10.5521  10.5521

          k = 0.3333 0.3333 0.5000 (  1784 PWs)   bands (ev):

   -17.0949 -17.0949 -10.1768 -10.1768 -10.1416 -10.1416 -10.0703 -10.0703
    -8.8755  -8.8755  -8.7715  -8.7715  -7.1653  -7.1653  -7.0919  -7.0919
    -7.0552  -7.0552  -4.9233  -4.9233  -4.4313  -4.4313  -3.3962  -3.3962
    -3.3776  -3.3776   1.0283   1.0283   1.1211   1.1211   1.1412   1.1412
     1.1605   1.1605   1.5839   1.5839   1.8754   1.8754   1.9366   1.9366
     1.9872   1.9872   3.4973   3.4973   5.8853   5.8853   7.3442   7.3442
     7.6868   7.6868   9.5202   9.5202   9.8996   9.8996  10.1414  10.1414
    10.2003  10.2003  10.4588  10.4588

          k = 0.3333 0.5000 0.5000 (  1792 PWs)   bands (ev):

   -17.0948 -17.0948 -10.1632 -10.1632 -10.0819 -10.0819 -10.0663 -10.0663
    -8.9389  -8.9389  -8.8656  -8.8656  -7.2074  -7.2074  -7.1500  -7.1500
    -7.1447  -7.1447  -4.9330  -4.9330  -4.5809  -4.5809  -3.4087  -3.4087
    -3.3967  -3.3967   1.0490   1.0490   1.1402   1.1402   1.1432   1.1432
     1.3346   1.3346   1.8639   1.8639   1.9062   1.9062   1.9683   1.9683
     2.0502   2.0502   3.9069   3.9069   5.4794   5.4794   6.8906   6.8906
     7.3940   7.3940   9.5433   9.5433   9.7900   9.7900  10.0333  10.0333
    10.0417  10.0417  10.6693  10.6693

          k = 0.5000 0.5000 0.5000 (  1736 PWs)   bands (ev):

   -17.0923 -17.0923 -10.0476 -10.0476 -10.0223 -10.0223 -10.0223 -10.0223
    -8.5968  -8.5968  -8.5968  -8.5968  -6.9084  -6.9084  -6.9084  -6.9084
    -6.8926  -6.8926  -4.9255  -4.9255  -4.7341  -4.7341  -3.4085  -3.4085
    -3.4085  -3.4085   1.1130   1.1130   1.1213   1.1213   1.1213   1.1213
     1.9029   1.9029   1.9029   1.9029   2.0026   2.0026   2.0729   2.0729
     2.0729   2.0729   4.3280   4.3280   5.0739   5.0739   6.7364   6.7364
     6.7364   6.7364   9.3743   9.3743   9.6718   9.6718   9.9408   9.9408
     9.9408   9.9408  11.0350  11.0350

     Writing output data file cspbcl3.save/
 
     init_run     :      0.19s CPU      1.48s WALL (       1 calls)
     electrons    :      7.78s CPU      8.39s WALL (       1 calls)

     Called by init_run:
     wfcinit      :      0.00s CPU      0.06s WALL (       1 calls)
     wfcinit:atom :      0.00s CPU      0.01s WALL (       5 calls)
     wfcinit:wfcr :      0.31s CPU      0.40s WALL (       5 calls)
     potinit      :      0.01s CPU      0.14s WALL (       1 calls)
     hinit0       :      0.15s CPU      1.16s WALL (       1 calls)

     Called by electrons:
     c_bands      :      7.78s CPU      8.37s WALL (       1 calls)
     v_of_rho     :      0.01s CPU      0.04s WALL (       1 calls)
     v_h          :      0.00s CPU      0.00s WALL (       1 calls)
     v_xc         :      0.01s CPU      0.03s WALL (       1 calls)

     Called by c_bands:
     init_us_2    :      0.00s CPU      0.01s WALL (       5 calls)
     cegterg      :      7.02s CPU      7.41s WALL (       7 calls)

     Called by sum_band:

     Called by *egterg:
     h_psi        :      3.23s CPU      3.61s WALL (     123 calls)
     g_psi        :      0.02s CPU      0.02s WALL (     111 calls)
     cdiaghg      :      3.58s CPU      3.62s WALL (     116 calls)
     cegterg:over :      0.21s CPU      0.23s WALL (     111 calls)
     cegterg:upda :      0.14s CPU      0.15s WALL (     111 calls)
     cegterg:last :      0.05s CPU      0.05s WALL (      21 calls)

     Called by h_psi:
     h_psi:pot    :      3.22s CPU      3.59s WALL (     123 calls)
     h_psi:calbec :      0.14s CPU      0.16s WALL (     123 calls)
     vloc_psi     :      2.24s CPU      2.58s WALL (     123 calls)
     add_vuspsi   :      0.83s CPU      0.85s WALL (     123 calls)

     General routines
     calbec       :      0.14s CPU      0.16s WALL (     123 calls)
     fft          :      0.05s CPU      1.01s WALL (      14 calls)
     fftw         :      1.99s CPU      2.29s WALL (   14288 calls)
     davcio       :      0.00s CPU      0.01s WALL (      10 calls)
 
     Parallel routines
     fft_scatt_xy :      0.21s CPU      0.23s WALL (   14302 calls)
     fft_scatt_yz :      1.04s CPU      1.20s WALL (   14302 calls)
 
     PWSCF        :     12.27s CPU     15.64s WALL

 
   This run was terminated on:  16:17:48   1May2021            

=------------------------------------------------------------------------------=
   JOB DONE.
=------------------------------------------------------------------------------=
TACC:  Shutdown complete. Exiting. 
