
     Program PW2WANNIER v.6.4.1 starts on  3May2021 at 16:14:28 

     This program is part of the open-source Quantum ESPRESSO suite
     for quantum simulation of materials; please cite
         "P. Giannozzi et al., J. Phys.:Condens. Matter 21 395502 (2009);
         "P. Giannozzi et al., J. Phys.:Condens. Matter 29 465901 (2017);
          URL http://www.quantum-espresso.org", 
     in publications or presentations arising from this work. More details at
     http://www.quantum-espresso.org/quote

     Parallel version (MPI & OpenMP), running on      32 processor cores
     Number of MPI processes:                32
     Threads/MPI process:                     1

     MPI processes distributed on     1 nodes
     R & G space division:  proc/nbgrp/npool/nimage =      32
 
  Reading nscf_save data

     Reading data from directory:
     ./MoS2.save/

     IMPORTANT: XC functional enforced from input :
     Exchange-correlation      = PBE ( 1  4  3  4 0 0)
     Any further DFT definition will be discarded
     Please, verify this is what you really want

 
     Parallelization info
     --------------------
     sticks:   dense  smooth     PW     G-vecs:    dense   smooth      PW
     Min          12      12      5                  980      980     267
     Max          13      13      6                 1004     1004     288
     Sum         385     385    163                31921    31921    8833
 
 ----2D----2D----2D----2D----2D----2D----2D----2D----2D----2D----2D----2D
  The code is running with the 2D cutoff
  Please refer to:
  Sohier, T., Calandra, M., & Mauri, F. (2017), 
  Density functional perturbation theory for gated two-dimensional heterostructu
 res:
  Theoretical developments and application to flexural phonons in graphene.
  Physical Review B, 96(7), 75448. https://doi.org/10.1103/PhysRevB.96.075448
 ----2D----2D----2D----2D----2D----2D----2D----2D----2D----2D----2D----2D
 
  Spin CASE ( non-collinear )
 
  Wannier mode is: standalone     
 
  -----------------
  *** Reading nnkp 
  -----------------
 
  Checking info from wannier.nnkp file
 
  - Real lattice is ok
  - Reciprocal lattice is ok
  - K-points are ok
  - Number of wannier functions is ok ( 22)
  - All guiding functions are given 
 
 Projections:
   -0.000005    0.577353    0.000000  2  1  1    1.000000
   -0.000005    0.577353    0.000000  2  1  1    1.000000
   -0.000005    0.577353    0.000000  2  2  1    1.000000
   -0.000005    0.577353    0.000000  2  2  1    1.000000
   -0.000005    0.577353    0.000000  2  3  1    1.000000
   -0.000005    0.577353    0.000000  2  3  1    1.000000
   -0.000005    0.577353    0.000000  2  4  1    1.000000
   -0.000005    0.577353    0.000000  2  4  1    1.000000
   -0.000005    0.577353    0.000000  2  5  1    1.000000
   -0.000005    0.577353    0.000000  2  5  1    1.000000
    0.500005    0.288672   -0.494443  1  1  1    1.000000
    0.500005    0.288672   -0.494443  1  1  1    1.000000
    0.500005    0.288672   -0.494443  1  2  1    1.000000
    0.500005    0.288672   -0.494443  1  2  1    1.000000
    0.500005    0.288672   -0.494443  1  3  1    1.000000
    0.500005    0.288672   -0.494443  1  3  1    1.000000
    0.500005    0.288672    0.494443  1  1  1    1.000000
    0.500005    0.288672    0.494443  1  1  1    1.000000
    0.500005    0.288672    0.494443  1  2  1    1.000000
    0.500005    0.288672    0.494443  1  2  1    1.000000
    0.500005    0.288672    0.494443  1  3  1    1.000000
    0.500005    0.288672    0.494443  1  3  1    1.000000
 
  Reading data about k-point neighbours 
 
  All neighbours are found 
 
  Opening pp-files 
 
 
  --------------------------
  *** Compute  A projections
  --------------------------
 
  AMN: iknum =      144
       1       2       3       4       5       6       7       8       9      10
      11      12      13      14      15      16      17      18      19      20
      21      22      23      24      25      26      27      28      29      30
      31      32      33      34      35      36      37      38      39      40
      41      42      43      44      45      46      47      48      49      50
      51      52      53      54      55      56      57      58      59      60
      61      62      63      64      65      66      67      68      69      70
      71      72      73      74      75      76      77      78      79      80
      81      82      83      84      85      86      87      88      89      90
      91      92      93      94      95      96      97      98      99     100
     101     102     103     104     105     106     107     108     109     110
     111     112     113     114     115     116     117     118     119     120
     121     122     123     124     125     126     127     128     129     130
     131     132     133     134     135     136     137     138     139     140
     141     142     143     144

  AMN calculated
 
  ---------------
  *** Compute  M 
  ---------------
 
  MMN: iknum =      144
       1       2       3       4       5       6       7       8       9      10
      11      12      13      14      15      16      17      18      19      20
      21      22      23      24      25      26      27      28      29      30
      31      32      33      34      35      36      37      38      39      40
      41      42      43      44      45      46      47      48      49      50
      51      52      53      54      55      56      57      58      59      60
      61      62      63      64      65      66      67      68      69      70
      71      72      73      74      75      76      77      78      79      80
      81      82      83      84      85      86      87      88      89      90
      91      92      93      94      95      96      97      98      99     100
     101     102     103     104     105     106     107     108     109     110
     111     112     113     114     115     116     117     118     119     120
     121     122     123     124     125     126     127     128     129     130
     131     132     133     134     135     136     137     138     139     140
     141     142     143     144

  MMN calculated
 
  --------------------------------
  *** Spin matrix is not computed 
  --------------------------------
 
  -----------------------------------
  *** Orbital terms are not computed 
  -----------------------------------
 
  ----------------
  *** Write bands 
  ----------------
 
 
  -----------------------------
  *** Plot info is not printed 
  -----------------------------
 
  -----------------------------
  *** Parity info is not printed 
  -----------------------------
 
  ------------
  *** Stop pp 
  ------------
 
 
     init_pw2wan  :      2.01s CPU     10.54s WALL (       1 calls)
     compute_amn  :      9.14s CPU      9.37s WALL (       1 calls)
     compute_mmn  :      6.29s CPU      7.37s WALL (       1 calls)
 
     PW2WANNIER   :     17.45s CPU     27.45s WALL

 
   This run was terminated on:  16:14:55   3May2021            

=------------------------------------------------------------------------------=
   JOB DONE.
=------------------------------------------------------------------------------=
 
