
     Program PWSCF v.6.4.1 starts on  3May2021 at 13: 2:14 

     This program is part of the open-source Quantum ESPRESSO suite
     for quantum simulation of materials; please cite
         "P. Giannozzi et al., J. Phys.:Condens. Matter 21 395502 (2009);
         "P. Giannozzi et al., J. Phys.:Condens. Matter 29 465901 (2017);
          URL http://www.quantum-espresso.org", 
     in publications or presentations arising from this work. More details at
     http://www.quantum-espresso.org/quote

     Parallel version (MPI & OpenMP), running on     320 processor cores
     Number of MPI processes:               320
     Threads/MPI process:                     1

     MPI processes distributed on    10 nodes
     K-points division:     npool     =      10
     R & G space division:  proc/nbgrp/npool/nimage =      32
     Waiting for input...
     Reading input from standard input

     Current dimensions of program PWSCF are:
     Max number of different atomic species (ntypx) = 10
     Max number of k-points (npk) =  40000
     Max angular momentum in pseudopotentials (lmaxx) =  3

     Atomic positions and unit cell read from directory:
     ./MoS2.save/
 
     Message from routine readpp:
     file ./MoS2.save/Mo_FR.UPF not found
     Message from routine readpp:
     file ./MoS2.save/S_FR.UPF not found

     Subspace diagonalization in iterative solution of the eigenvalue problem:
     one sub-group per band group will be used
     scalapack distributed-memory algorithm (size of sub-group:  4*  4 procs)

     Message from routine setup:
     DEPRECATED: symmetry with ibrav=0, use correct ibrav instead
 
     Parallelization info
     --------------------
     sticks:   dense  smooth     PW     G-vecs:    dense   smooth      PW
     Min          12      12      5                  980      980     267
     Max          13      13      6                 1004     1004     288
     Sum         385     385    163                31921    31921    8833
 


     bravais-lattice index     =            0
     lattice parameter (alat)  =       5.9867  a.u.
     unit-cell volume          =     938.4712 (a.u.)^3
     number of atoms/cell      =            3
     number of atomic types    =            2
     number of electrons       =        26.00
     number of Kohn-Sham states=           40
     kinetic-energy cutoff     =      40.0000  Ry
     charge density cutoff     =     160.0000  Ry
     Exchange-correlation      = PBE ( 1  4  3  4 0 0)
     Non magnetic calculation with spin-orbit


     celldm(1)=   5.986676  celldm(2)=   0.000000  celldm(3)=   0.000000
     celldm(4)=   0.000000  celldm(5)=   0.000000  celldm(6)=   0.000000

     crystal axes: (cart. coord. in units of alat)
               a(1) = (   1.000000   0.000000   0.000000 )  
               a(2) = (  -0.500000   0.866025   0.000000 )  
               a(3) = (   0.000000   0.000000   5.050485 )  

     reciprocal axes: (cart. coord. in units 2 pi/alat)
               b(1) = (  1.000000  0.577350  0.000000 )  
               b(2) = (  0.000000  1.154701  0.000000 )  
               b(3) = (  0.000000  0.000000  0.198001 )  


     PseudoPot. # 1 for Mo read from file:
     ../../../pseudo/oncvpsp/Mo_FR.UPF
     MD5 check sum: 091442f9a55d305e44af61b3fb26c716
     Pseudo is Norm-conserving, Zval = 14.0
     Generated using ONCVPSP code by D. R. Hamann
     Using radial grid of 1526 points, 10 beta functions with: 
                l(1) =   0
                l(2) =   0
                l(3) =   1
                l(4) =   1
                l(5) =   1
                l(6) =   1
                l(7) =   2
                l(8) =   2
                l(9) =   2
               l(10) =   2

     PseudoPot. # 2 for S  read from file:
     ../../../pseudo/oncvpsp/S_FR.UPF
     MD5 check sum: 1ec1d62f6016a84edfc3cbeb70a0ad55
     Pseudo is Norm-conserving, Zval =  6.0
     Generated using ONCVPSP code by D. R. Hamann
     Using radial grid of 1146 points,  6 beta functions with: 
                l(1) =   0
                l(2) =   0
                l(3) =   1
                l(4) =   1
                l(5) =   1
                l(6) =   1

     atomic species   valence    mass     pseudopotential
        Mo            14.00     1.00000     Mo( 1.00)
        S              6.00     1.00000     S ( 1.00)

     12 Sym. Ops. (no inversion) found


                                    s                        frac. trans.

      isym =  1     identity                                     

 cryst.   s( 1) = (     1          0          0      )
                  (     0          1          0      )
                  (     0          0          1      )

 cart.    s( 1) = (  1.0000000  0.0000000  0.0000000 )
                  (  0.0000000  1.0000000  0.0000000 )
                  (  0.0000000  0.0000000  1.0000000 )


      isym =  2     180 deg rotation - cart. axis [0,1,0]        

 cryst.   s( 2) = (    -1          0          0      )
                  (     1          1          0      )
                  (     0          0         -1      )

 cart.    s( 2) = ( -1.0000000  0.0000000  0.0000000 )
                  (  0.0000000  1.0000000  0.0000000 )
                  (  0.0000000  0.0000000 -1.0000000 )


      isym =  3     120 deg rotation - cryst. axis [0,0,1]       

 cryst.   s( 3) = (     0          1          0      )
                  (    -1         -1          0      )
                  (     0          0          1      )

 cart.    s( 3) = ( -0.5000000 -0.8660254  0.0000000 )
                  (  0.8660254 -0.5000000  0.0000000 )
                  (  0.0000000  0.0000000  1.0000000 )


      isym =  4     120 deg rotation - cryst. axis [0,0,-1]      

 cryst.   s( 4) = (    -1         -1          0      )
                  (     1          0          0      )
                  (     0          0          1      )

 cart.    s( 4) = ( -0.5000000  0.8660254  0.0000000 )
                  ( -0.8660254 -0.5000000  0.0000000 )
                  (  0.0000000  0.0000000  1.0000000 )


      isym =  5     180 deg rotation - cryst. axis [1,-1,0]      

 cryst.   s( 5) = (     0         -1          0      )
                  (    -1          0          0      )
                  (     0          0         -1      )

 cart.    s( 5) = (  0.5000000 -0.8660254  0.0000000 )
                  ( -0.8660254 -0.5000000  0.0000000 )
                  (  0.0000000  0.0000000 -1.0000000 )


      isym =  6     180 deg rotation - cryst. axis [2,1,0]       

 cryst.   s( 6) = (     1          1          0      )
                  (     0         -1          0      )
                  (     0          0         -1      )

 cart.    s( 6) = (  0.5000000  0.8660254  0.0000000 )
                  (  0.8660254 -0.5000000  0.0000000 )
                  (  0.0000000  0.0000000 -1.0000000 )


      isym =  7     inv. 180 deg rotation - cart. axis [0,0,1]   

 cryst.   s( 7) = (     1          0          0      )
                  (     0          1          0      )
                  (     0          0         -1      )

 cart.    s( 7) = (  1.0000000  0.0000000  0.0000000 )
                  (  0.0000000  1.0000000  0.0000000 )
                  (  0.0000000  0.0000000 -1.0000000 )


      isym =  8     inv. 180 deg rotation - cart. axis [1,0,0]   

 cryst.   s( 8) = (    -1          0          0      )
                  (     1          1          0      )
                  (     0          0          1      )

 cart.    s( 8) = ( -1.0000000  0.0000000  0.0000000 )
                  (  0.0000000  1.0000000  0.0000000 )
                  (  0.0000000  0.0000000  1.0000000 )


      isym =  9     inv.  60 deg rotation - cryst. axis [0,0,1]  

 cryst.   s( 9) = (    -1         -1          0      )
                  (     1          0          0      )
                  (     0          0         -1      )

 cart.    s( 9) = ( -0.5000000  0.8660254  0.0000000 )
                  ( -0.8660254 -0.5000000  0.0000000 )
                  (  0.0000000  0.0000000 -1.0000000 )


      isym = 10     inv.  60 deg rotation - cryst. axis [0,0,-1] 

 cryst.   s(10) = (     0          1          0      )
                  (    -1         -1          0      )
                  (     0          0         -1      )

 cart.    s(10) = ( -0.5000000 -0.8660254  0.0000000 )
                  (  0.8660254 -0.5000000  0.0000000 )
                  (  0.0000000  0.0000000 -1.0000000 )


      isym = 11     inv. 180 deg rotation - cryst. axis [0,1,0]  

 cryst.   s(11) = (     1          1          0      )
                  (     0         -1          0      )
                  (     0          0          1      )

 cart.    s(11) = (  0.5000000  0.8660254  0.0000000 )
                  (  0.8660254 -0.5000000  0.0000000 )
                  (  0.0000000  0.0000000  1.0000000 )


      isym = 12     inv. 180 deg rotation - cryst. axis [1,1,0]  

 cryst.   s(12) = (     0         -1          0      )
                  (    -1          0          0      )
                  (     0          0          1      )

 cart.    s(12) = (  0.5000000 -0.8660254  0.0000000 )
                  ( -0.8660254 -0.5000000  0.0000000 )
                  (  0.0000000  0.0000000  1.0000000 )


   Cartesian axes

     site n.     atom                  positions (alat units)
         1           Mo  tau(   1) = (  -0.0000000   0.5773503   0.0000000  )
         2           S   tau(   2) = (   0.5000000   0.2886751  -0.4944526  )
         3           S   tau(   3) = (   0.5000000   0.2886751   0.4944526  )

   Crystallographic axes

     site n.     atom                  positions (cryst. coord.)
         1           Mo  tau(   1) = (  0.3333333  0.6666667  0.0000000  )
         2           S   tau(   2) = (  0.6666667  0.3333333 -0.0979020  )
         3           S   tau(   3) = (  0.6666667  0.3333333  0.0979020  )

     number of k points=   144
                       cart. coord. in units 2pi/alat
        k(    1) = (   0.0000000   0.0000000   0.0000000), wk =   0.0069444
        k(    2) = (   0.0000000   0.0962250   0.0000000), wk =   0.0069444
        k(    3) = (   0.0000000   0.1924501   0.0000000), wk =   0.0069444
        k(    4) = (   0.0000000   0.2886751   0.0000000), wk =   0.0069444
        k(    5) = (   0.0000000   0.3849002   0.0000000), wk =   0.0069444
        k(    6) = (   0.0000000   0.4811252   0.0000000), wk =   0.0069444
        k(    7) = (   0.0000000   0.5773503   0.0000000), wk =   0.0069444
        k(    8) = (   0.0000000   0.6735753   0.0000000), wk =   0.0069444
        k(    9) = (   0.0000000   0.7698004   0.0000000), wk =   0.0069444
        k(   10) = (   0.0000000   0.8660254   0.0000000), wk =   0.0069444
        k(   11) = (   0.0000000   0.9622504   0.0000000), wk =   0.0069444
        k(   12) = (   0.0000000   1.0584755   0.0000000), wk =   0.0069444
        k(   13) = (   0.0833333   0.0481125   0.0000000), wk =   0.0069444
        k(   14) = (   0.0833333   0.1443376   0.0000000), wk =   0.0069444
        k(   15) = (   0.0833333   0.2405626   0.0000000), wk =   0.0069444
        k(   16) = (   0.0833333   0.3367877   0.0000000), wk =   0.0069444
        k(   17) = (   0.0833333   0.4330127   0.0000000), wk =   0.0069444
        k(   18) = (   0.0833333   0.5292377   0.0000000), wk =   0.0069444
        k(   19) = (   0.0833333   0.6254628   0.0000000), wk =   0.0069444
        k(   20) = (   0.0833333   0.7216878   0.0000000), wk =   0.0069444
        k(   21) = (   0.0833333   0.8179129   0.0000000), wk =   0.0069444
        k(   22) = (   0.0833333   0.9141379   0.0000000), wk =   0.0069444
        k(   23) = (   0.0833333   1.0103630   0.0000000), wk =   0.0069444
        k(   24) = (   0.0833333   1.1065880   0.0000000), wk =   0.0069444
        k(   25) = (   0.1666667   0.0962250   0.0000000), wk =   0.0069444
        k(   26) = (   0.1666667   0.1924501   0.0000000), wk =   0.0069444
        k(   27) = (   0.1666667   0.2886751   0.0000000), wk =   0.0069444
        k(   28) = (   0.1666667   0.3849002   0.0000000), wk =   0.0069444
        k(   29) = (   0.1666667   0.4811252   0.0000000), wk =   0.0069444
        k(   30) = (   0.1666667   0.5773503   0.0000000), wk =   0.0069444
        k(   31) = (   0.1666667   0.6735753   0.0000000), wk =   0.0069444
        k(   32) = (   0.1666667   0.7698004   0.0000000), wk =   0.0069444
        k(   33) = (   0.1666667   0.8660254   0.0000000), wk =   0.0069444
        k(   34) = (   0.1666667   0.9622505   0.0000000), wk =   0.0069444
        k(   35) = (   0.1666667   1.0584755   0.0000000), wk =   0.0069444
        k(   36) = (   0.1666667   1.1547005   0.0000000), wk =   0.0069444
        k(   37) = (   0.2500000   0.1443376   0.0000000), wk =   0.0069444
        k(   38) = (   0.2500000   0.2405626   0.0000000), wk =   0.0069444
        k(   39) = (   0.2500000   0.3367877   0.0000000), wk =   0.0069444
        k(   40) = (   0.2500000   0.4330127   0.0000000), wk =   0.0069444
        k(   41) = (   0.2500000   0.5292377   0.0000000), wk =   0.0069444
        k(   42) = (   0.2500000   0.6254628   0.0000000), wk =   0.0069444
        k(   43) = (   0.2500000   0.7216878   0.0000000), wk =   0.0069444
        k(   44) = (   0.2500000   0.8179129   0.0000000), wk =   0.0069444
        k(   45) = (   0.2500000   0.9141379   0.0000000), wk =   0.0069444
        k(   46) = (   0.2500000   1.0103630   0.0000000), wk =   0.0069444
        k(   47) = (   0.2500000   1.1065880   0.0000000), wk =   0.0069444
        k(   48) = (   0.2500000   1.2028131   0.0000000), wk =   0.0069444
        k(   49) = (   0.3333333   0.1924501   0.0000000), wk =   0.0069444
        k(   50) = (   0.3333333   0.2886751   0.0000000), wk =   0.0069444
        k(   51) = (   0.3333333   0.3849002   0.0000000), wk =   0.0069444
        k(   52) = (   0.3333333   0.4811252   0.0000000), wk =   0.0069444
        k(   53) = (   0.3333333   0.5773503   0.0000000), wk =   0.0069444
        k(   54) = (   0.3333333   0.6735753   0.0000000), wk =   0.0069444
        k(   55) = (   0.3333333   0.7698004   0.0000000), wk =   0.0069444
        k(   56) = (   0.3333333   0.8660254   0.0000000), wk =   0.0069444
        k(   57) = (   0.3333333   0.9622505   0.0000000), wk =   0.0069444
        k(   58) = (   0.3333333   1.0584755   0.0000000), wk =   0.0069444
        k(   59) = (   0.3333333   1.1547005   0.0000000), wk =   0.0069444
        k(   60) = (   0.3333333   1.2509256   0.0000000), wk =   0.0069444
        k(   61) = (   0.4166667   0.2405626   0.0000000), wk =   0.0069444
        k(   62) = (   0.4166667   0.3367877   0.0000000), wk =   0.0069444
        k(   63) = (   0.4166667   0.4330127   0.0000000), wk =   0.0069444
        k(   64) = (   0.4166667   0.5292377   0.0000000), wk =   0.0069444
        k(   65) = (   0.4166667   0.6254628   0.0000000), wk =   0.0069444
        k(   66) = (   0.4166667   0.7216878   0.0000000), wk =   0.0069444
        k(   67) = (   0.4166667   0.8179129   0.0000000), wk =   0.0069444
        k(   68) = (   0.4166667   0.9141379   0.0000000), wk =   0.0069444
        k(   69) = (   0.4166667   1.0103630   0.0000000), wk =   0.0069444
        k(   70) = (   0.4166667   1.1065880   0.0000000), wk =   0.0069444
        k(   71) = (   0.4166667   1.2028131   0.0000000), wk =   0.0069444
        k(   72) = (   0.4166667   1.2990381   0.0000000), wk =   0.0069444
        k(   73) = (   0.5000000   0.2886751   0.0000000), wk =   0.0069444
        k(   74) = (   0.5000000   0.3849002   0.0000000), wk =   0.0069444
        k(   75) = (   0.5000000   0.4811252   0.0000000), wk =   0.0069444
        k(   76) = (   0.5000000   0.5773503   0.0000000), wk =   0.0069444
        k(   77) = (   0.5000000   0.6735753   0.0000000), wk =   0.0069444
        k(   78) = (   0.5000000   0.7698004   0.0000000), wk =   0.0069444
        k(   79) = (   0.5000000   0.8660254   0.0000000), wk =   0.0069444
        k(   80) = (   0.5000000   0.9622504   0.0000000), wk =   0.0069444
        k(   81) = (   0.5000000   1.0584755   0.0000000), wk =   0.0069444
        k(   82) = (   0.5000000   1.1547005   0.0000000), wk =   0.0069444
        k(   83) = (   0.5000000   1.2509256   0.0000000), wk =   0.0069444
        k(   84) = (   0.5000000   1.3471506   0.0000000), wk =   0.0069444
        k(   85) = (   0.5833333   0.3367877   0.0000000), wk =   0.0069444
        k(   86) = (   0.5833333   0.4330127   0.0000000), wk =   0.0069444
        k(   87) = (   0.5833333   0.5292377   0.0000000), wk =   0.0069444
        k(   88) = (   0.5833333   0.6254628   0.0000000), wk =   0.0069444
        k(   89) = (   0.5833333   0.7216878   0.0000000), wk =   0.0069444
        k(   90) = (   0.5833333   0.8179129   0.0000000), wk =   0.0069444
        k(   91) = (   0.5833333   0.9141379   0.0000000), wk =   0.0069444
        k(   92) = (   0.5833333   1.0103630   0.0000000), wk =   0.0069444
        k(   93) = (   0.5833333   1.1065880   0.0000000), wk =   0.0069444
        k(   94) = (   0.5833333   1.2028131   0.0000000), wk =   0.0069444
        k(   95) = (   0.5833333   1.2990381   0.0000000), wk =   0.0069444
        k(   96) = (   0.5833333   1.3952632   0.0000000), wk =   0.0069444
        k(   97) = (   0.6666667   0.3849002   0.0000000), wk =   0.0069444
        k(   98) = (   0.6666667   0.4811252   0.0000000), wk =   0.0069444
        k(   99) = (   0.6666667   0.5773503   0.0000000), wk =   0.0069444
        k(  100) = (   0.6666667   0.6735753   0.0000000), wk =   0.0069444
        k(  101) = (   0.6666667   0.7698004   0.0000000), wk =   0.0069444
        k(  102) = (   0.6666667   0.8660254   0.0000000), wk =   0.0069444
        k(  103) = (   0.6666667   0.9622505   0.0000000), wk =   0.0069444
        k(  104) = (   0.6666667   1.0584755   0.0000000), wk =   0.0069444
        k(  105) = (   0.6666667   1.1547005   0.0000000), wk =   0.0069444
        k(  106) = (   0.6666667   1.2509256   0.0000000), wk =   0.0069444
        k(  107) = (   0.6666667   1.3471506   0.0000000), wk =   0.0069444
        k(  108) = (   0.6666667   1.4433757   0.0000000), wk =   0.0069444
        k(  109) = (   0.7500000   0.4330127   0.0000000), wk =   0.0069444
        k(  110) = (   0.7500000   0.5292377   0.0000000), wk =   0.0069444
        k(  111) = (   0.7500000   0.6254628   0.0000000), wk =   0.0069444
        k(  112) = (   0.7500000   0.7216878   0.0000000), wk =   0.0069444
        k(  113) = (   0.7500000   0.8179129   0.0000000), wk =   0.0069444
        k(  114) = (   0.7500000   0.9141379   0.0000000), wk =   0.0069444
        k(  115) = (   0.7500000   1.0103630   0.0000000), wk =   0.0069444
        k(  116) = (   0.7500000   1.1065880   0.0000000), wk =   0.0069444
        k(  117) = (   0.7500000   1.2028131   0.0000000), wk =   0.0069444
        k(  118) = (   0.7500000   1.2990381   0.0000000), wk =   0.0069444
        k(  119) = (   0.7500000   1.3952631   0.0000000), wk =   0.0069444
        k(  120) = (   0.7500000   1.4914882   0.0000000), wk =   0.0069444
        k(  121) = (   0.8333333   0.4811252   0.0000000), wk =   0.0069444
        k(  122) = (   0.8333333   0.5773503   0.0000000), wk =   0.0069444
        k(  123) = (   0.8333333   0.6735753   0.0000000), wk =   0.0069444
        k(  124) = (   0.8333333   0.7698004   0.0000000), wk =   0.0069444
        k(  125) = (   0.8333333   0.8660254   0.0000000), wk =   0.0069444
        k(  126) = (   0.8333333   0.9622505   0.0000000), wk =   0.0069444
        k(  127) = (   0.8333333   1.0584755   0.0000000), wk =   0.0069444
        k(  128) = (   0.8333333   1.1547005   0.0000000), wk =   0.0069444
        k(  129) = (   0.8333333   1.2509256   0.0000000), wk =   0.0069444
        k(  130) = (   0.8333333   1.3471506   0.0000000), wk =   0.0069444
        k(  131) = (   0.8333333   1.4433757   0.0000000), wk =   0.0069444
        k(  132) = (   0.8333333   1.5396007   0.0000000), wk =   0.0069444
        k(  133) = (   0.9166667   0.5292377   0.0000000), wk =   0.0069444
        k(  134) = (   0.9166667   0.6254628   0.0000000), wk =   0.0069444
        k(  135) = (   0.9166667   0.7216878   0.0000000), wk =   0.0069444
        k(  136) = (   0.9166667   0.8179129   0.0000000), wk =   0.0069444
        k(  137) = (   0.9166667   0.9141379   0.0000000), wk =   0.0069444
        k(  138) = (   0.9166667   1.0103630   0.0000000), wk =   0.0069444
        k(  139) = (   0.9166667   1.1065880   0.0000000), wk =   0.0069444
        k(  140) = (   0.9166667   1.2028131   0.0000000), wk =   0.0069444
        k(  141) = (   0.9166667   1.2990381   0.0000000), wk =   0.0069444
        k(  142) = (   0.9166667   1.3952632   0.0000000), wk =   0.0069444
        k(  143) = (   0.9166667   1.4914882   0.0000000), wk =   0.0069444
        k(  144) = (   0.9166667   1.5877132   0.0000000), wk =   0.0069444

                       cryst. coord.
        k(    1) = (   0.0000000   0.0000000   0.0000000), wk =   0.0069444
        k(    2) = (   0.0000000   0.0833333   0.0000000), wk =   0.0069444
        k(    3) = (   0.0000000   0.1666667   0.0000000), wk =   0.0069444
        k(    4) = (   0.0000000   0.2500000   0.0000000), wk =   0.0069444
        k(    5) = (   0.0000000   0.3333333   0.0000000), wk =   0.0069444
        k(    6) = (   0.0000000   0.4166667   0.0000000), wk =   0.0069444
        k(    7) = (   0.0000000   0.5000000   0.0000000), wk =   0.0069444
        k(    8) = (   0.0000000   0.5833333   0.0000000), wk =   0.0069444
        k(    9) = (   0.0000000   0.6666667   0.0000000), wk =   0.0069444
        k(   10) = (   0.0000000   0.7500000   0.0000000), wk =   0.0069444
        k(   11) = (   0.0000000   0.8333333   0.0000000), wk =   0.0069444
        k(   12) = (   0.0000000   0.9166667   0.0000000), wk =   0.0069444
        k(   13) = (   0.0833333   0.0000000   0.0000000), wk =   0.0069444
        k(   14) = (   0.0833333   0.0833333   0.0000000), wk =   0.0069444
        k(   15) = (   0.0833333   0.1666667   0.0000000), wk =   0.0069444
        k(   16) = (   0.0833333   0.2500000   0.0000000), wk =   0.0069444
        k(   17) = (   0.0833333   0.3333333   0.0000000), wk =   0.0069444
        k(   18) = (   0.0833333   0.4166667   0.0000000), wk =   0.0069444
        k(   19) = (   0.0833333   0.5000000   0.0000000), wk =   0.0069444
        k(   20) = (   0.0833333   0.5833333   0.0000000), wk =   0.0069444
        k(   21) = (   0.0833333   0.6666667   0.0000000), wk =   0.0069444
        k(   22) = (   0.0833333   0.7500000   0.0000000), wk =   0.0069444
        k(   23) = (   0.0833333   0.8333333   0.0000000), wk =   0.0069444
        k(   24) = (   0.0833333   0.9166667   0.0000000), wk =   0.0069444
        k(   25) = (   0.1666667  -0.0000000   0.0000000), wk =   0.0069444
        k(   26) = (   0.1666667   0.0833333   0.0000000), wk =   0.0069444
        k(   27) = (   0.1666667   0.1666667   0.0000000), wk =   0.0069444
        k(   28) = (   0.1666667   0.2500000   0.0000000), wk =   0.0069444
        k(   29) = (   0.1666667   0.3333333   0.0000000), wk =   0.0069444
        k(   30) = (   0.1666667   0.4166667   0.0000000), wk =   0.0069444
        k(   31) = (   0.1666667   0.5000000   0.0000000), wk =   0.0069444
        k(   32) = (   0.1666667   0.5833333   0.0000000), wk =   0.0069444
        k(   33) = (   0.1666667   0.6666667   0.0000000), wk =   0.0069444
        k(   34) = (   0.1666667   0.7500000   0.0000000), wk =   0.0069444
        k(   35) = (   0.1666667   0.8333333   0.0000000), wk =   0.0069444
        k(   36) = (   0.1666667   0.9166667   0.0000000), wk =   0.0069444
        k(   37) = (   0.2500000   0.0000000   0.0000000), wk =   0.0069444
        k(   38) = (   0.2500000   0.0833333   0.0000000), wk =   0.0069444
        k(   39) = (   0.2500000   0.1666667   0.0000000), wk =   0.0069444
        k(   40) = (   0.2500000   0.2500000   0.0000000), wk =   0.0069444
        k(   41) = (   0.2500000   0.3333333   0.0000000), wk =   0.0069444
        k(   42) = (   0.2500000   0.4166667   0.0000000), wk =   0.0069444
        k(   43) = (   0.2500000   0.5000000   0.0000000), wk =   0.0069444
        k(   44) = (   0.2500000   0.5833333   0.0000000), wk =   0.0069444
        k(   45) = (   0.2500000   0.6666667   0.0000000), wk =   0.0069444
        k(   46) = (   0.2500000   0.7500000   0.0000000), wk =   0.0069444
        k(   47) = (   0.2500000   0.8333333   0.0000000), wk =   0.0069444
        k(   48) = (   0.2500000   0.9166667   0.0000000), wk =   0.0069444
        k(   49) = (   0.3333333  -0.0000000   0.0000000), wk =   0.0069444
        k(   50) = (   0.3333333   0.0833333   0.0000000), wk =   0.0069444
        k(   51) = (   0.3333333   0.1666667   0.0000000), wk =   0.0069444
        k(   52) = (   0.3333333   0.2500000   0.0000000), wk =   0.0069444
        k(   53) = (   0.3333333   0.3333333   0.0000000), wk =   0.0069444
        k(   54) = (   0.3333333   0.4166667   0.0000000), wk =   0.0069444
        k(   55) = (   0.3333333   0.5000000   0.0000000), wk =   0.0069444
        k(   56) = (   0.3333333   0.5833333   0.0000000), wk =   0.0069444
        k(   57) = (   0.3333333   0.6666667   0.0000000), wk =   0.0069444
        k(   58) = (   0.3333333   0.7500000   0.0000000), wk =   0.0069444
        k(   59) = (   0.3333333   0.8333333   0.0000000), wk =   0.0069444
        k(   60) = (   0.3333333   0.9166667   0.0000000), wk =   0.0069444
        k(   61) = (   0.4166667   0.0000000   0.0000000), wk =   0.0069444
        k(   62) = (   0.4166667   0.0833333   0.0000000), wk =   0.0069444
        k(   63) = (   0.4166667   0.1666667   0.0000000), wk =   0.0069444
        k(   64) = (   0.4166667   0.2500000   0.0000000), wk =   0.0069444
        k(   65) = (   0.4166667   0.3333333   0.0000000), wk =   0.0069444
        k(   66) = (   0.4166667   0.4166667   0.0000000), wk =   0.0069444
        k(   67) = (   0.4166667   0.5000000   0.0000000), wk =   0.0069444
        k(   68) = (   0.4166667   0.5833333   0.0000000), wk =   0.0069444
        k(   69) = (   0.4166667   0.6666667   0.0000000), wk =   0.0069444
        k(   70) = (   0.4166667   0.7500000   0.0000000), wk =   0.0069444
        k(   71) = (   0.4166667   0.8333333   0.0000000), wk =   0.0069444
        k(   72) = (   0.4166667   0.9166667   0.0000000), wk =   0.0069444
        k(   73) = (   0.5000000   0.0000000   0.0000000), wk =   0.0069444
        k(   74) = (   0.5000000   0.0833333   0.0000000), wk =   0.0069444
        k(   75) = (   0.5000000   0.1666667   0.0000000), wk =   0.0069444
        k(   76) = (   0.5000000   0.2500000   0.0000000), wk =   0.0069444
        k(   77) = (   0.5000000   0.3333333   0.0000000), wk =   0.0069444
        k(   78) = (   0.5000000   0.4166667   0.0000000), wk =   0.0069444
        k(   79) = (   0.5000000   0.5000000   0.0000000), wk =   0.0069444
        k(   80) = (   0.5000000   0.5833333   0.0000000), wk =   0.0069444
        k(   81) = (   0.5000000   0.6666667   0.0000000), wk =   0.0069444
        k(   82) = (   0.5000000   0.7500000   0.0000000), wk =   0.0069444
        k(   83) = (   0.5000000   0.8333333   0.0000000), wk =   0.0069444
        k(   84) = (   0.5000000   0.9166667   0.0000000), wk =   0.0069444
        k(   85) = (   0.5833333   0.0000000   0.0000000), wk =   0.0069444
        k(   86) = (   0.5833333   0.0833333   0.0000000), wk =   0.0069444
        k(   87) = (   0.5833333   0.1666667   0.0000000), wk =   0.0069444
        k(   88) = (   0.5833333   0.2500000   0.0000000), wk =   0.0069444
        k(   89) = (   0.5833333   0.3333333   0.0000000), wk =   0.0069444
        k(   90) = (   0.5833333   0.4166667   0.0000000), wk =   0.0069444
        k(   91) = (   0.5833333   0.5000000   0.0000000), wk =   0.0069444
        k(   92) = (   0.5833333   0.5833333   0.0000000), wk =   0.0069444
        k(   93) = (   0.5833333   0.6666667   0.0000000), wk =   0.0069444
        k(   94) = (   0.5833333   0.7500000   0.0000000), wk =   0.0069444
        k(   95) = (   0.5833333   0.8333333   0.0000000), wk =   0.0069444
        k(   96) = (   0.5833333   0.9166667   0.0000000), wk =   0.0069444
        k(   97) = (   0.6666667  -0.0000000   0.0000000), wk =   0.0069444
        k(   98) = (   0.6666667   0.0833333   0.0000000), wk =   0.0069444
        k(   99) = (   0.6666667   0.1666667   0.0000000), wk =   0.0069444
        k(  100) = (   0.6666667   0.2500000   0.0000000), wk =   0.0069444
        k(  101) = (   0.6666667   0.3333333   0.0000000), wk =   0.0069444
        k(  102) = (   0.6666667   0.4166667   0.0000000), wk =   0.0069444
        k(  103) = (   0.6666667   0.5000000   0.0000000), wk =   0.0069444
        k(  104) = (   0.6666667   0.5833333   0.0000000), wk =   0.0069444
        k(  105) = (   0.6666667   0.6666667   0.0000000), wk =   0.0069444
        k(  106) = (   0.6666667   0.7500000   0.0000000), wk =   0.0069444
        k(  107) = (   0.6666667   0.8333333   0.0000000), wk =   0.0069444
        k(  108) = (   0.6666667   0.9166667   0.0000000), wk =   0.0069444
        k(  109) = (   0.7500000   0.0000000   0.0000000), wk =   0.0069444
        k(  110) = (   0.7500000   0.0833333   0.0000000), wk =   0.0069444
        k(  111) = (   0.7500000   0.1666667   0.0000000), wk =   0.0069444
        k(  112) = (   0.7500000   0.2500000   0.0000000), wk =   0.0069444
        k(  113) = (   0.7500000   0.3333333   0.0000000), wk =   0.0069444
        k(  114) = (   0.7500000   0.4166667   0.0000000), wk =   0.0069444
        k(  115) = (   0.7500000   0.5000000   0.0000000), wk =   0.0069444
        k(  116) = (   0.7500000   0.5833333   0.0000000), wk =   0.0069444
        k(  117) = (   0.7500000   0.6666667   0.0000000), wk =   0.0069444
        k(  118) = (   0.7500000   0.7500000   0.0000000), wk =   0.0069444
        k(  119) = (   0.7500000   0.8333333   0.0000000), wk =   0.0069444
        k(  120) = (   0.7500000   0.9166667   0.0000000), wk =   0.0069444
        k(  121) = (   0.8333333   0.0000000   0.0000000), wk =   0.0069444
        k(  122) = (   0.8333333   0.0833333   0.0000000), wk =   0.0069444
        k(  123) = (   0.8333333   0.1666667   0.0000000), wk =   0.0069444
        k(  124) = (   0.8333333   0.2500000   0.0000000), wk =   0.0069444
        k(  125) = (   0.8333333   0.3333333   0.0000000), wk =   0.0069444
        k(  126) = (   0.8333333   0.4166667   0.0000000), wk =   0.0069444
        k(  127) = (   0.8333333   0.5000000   0.0000000), wk =   0.0069444
        k(  128) = (   0.8333333   0.5833333   0.0000000), wk =   0.0069444
        k(  129) = (   0.8333333   0.6666667   0.0000000), wk =   0.0069444
        k(  130) = (   0.8333333   0.7500000   0.0000000), wk =   0.0069444
        k(  131) = (   0.8333333   0.8333333   0.0000000), wk =   0.0069444
        k(  132) = (   0.8333333   0.9166667   0.0000000), wk =   0.0069444
        k(  133) = (   0.9166667   0.0000000   0.0000000), wk =   0.0069444
        k(  134) = (   0.9166667   0.0833333   0.0000000), wk =   0.0069444
        k(  135) = (   0.9166667   0.1666667   0.0000000), wk =   0.0069444
        k(  136) = (   0.9166667   0.2500000   0.0000000), wk =   0.0069444
        k(  137) = (   0.9166667   0.3333333   0.0000000), wk =   0.0069444
        k(  138) = (   0.9166667   0.4166667   0.0000000), wk =   0.0069444
        k(  139) = (   0.9166667   0.5000000   0.0000000), wk =   0.0069444
        k(  140) = (   0.9166667   0.5833333   0.0000000), wk =   0.0069444
        k(  141) = (   0.9166667   0.6666667   0.0000000), wk =   0.0069444
        k(  142) = (   0.9166667   0.7500000   0.0000000), wk =   0.0069444
        k(  143) = (   0.9166667   0.8333333   0.0000000), wk =   0.0069444
        k(  144) = (   0.9166667   0.9166667   0.0000000), wk =   0.0069444

     Dense  grid:    31921 G-vectors     FFT dimensions: (  25,  25, 125)

     Dynamical RAM for                 wfc:       0.15 MB

     Dynamical RAM for     wfc (w. buffer):       2.44 MB

     Dynamical RAM for           str. fact:       0.03 MB

     Dynamical RAM for           local pot:       0.00 MB

     Dynamical RAM for          nlocal pot:       0.12 MB

     Dynamical RAM for                qrad:       5.07 MB

     Dynamical RAM for          rho,v,vnew:       0.41 MB

     Dynamical RAM for           G-vectors:       0.07 MB

     Dynamical RAM for          h,s,v(r/c):       0.07 MB

     Dynamical RAM for          <psi|beta>:       0.08 MB

     Dynamical RAM for                 psi:       0.61 MB

     Dynamical RAM for                hpsi:       0.61 MB

     Dynamical RAM for      wfcinit/wfcrot:       0.27 MB

     Estimated static dynamical RAM per process >       8.34 MB

     Estimated max dynamical RAM per process >       9.71 MB

     Estimated total dynamical RAM >       3.03 GB
 ----2D----2D----2D----2D----2D----2D----2D----2D----2D----2D----2D----2D
  The code is running with the 2D cutoff
  Please refer to:
  Sohier, T., Calandra, M., & Mauri, F. (2017), 
  Density functional perturbation theory for gated two-dimensional heterostructu
 res:
  Theoretical developments and application to flexural phonons in graphene.
  Physical Review B, 96(7), 75448. https://doi.org/10.1103/PhysRevB.96.075448
 ----2D----2D----2D----2D----2D----2D----2D----2D----2D----2D----2D----2D

     The potential is recalculated from file :
     ./MoS2.save/charge-density

     Starting wfcs are   36 randomized atomic wfcs +    4 random wfcs

     Band Structure Calculation
     Davidson diagonalization with overlap

     Computing kpt #:     1
     total cpu time spent up to now is        1.4 secs

     Computing kpt #:     2
     total cpu time spent up to now is        2.0 secs

     Computing kpt #:     3
     total cpu time spent up to now is        2.7 secs

     Computing kpt #:     4
     total cpu time spent up to now is        3.3 secs

     Computing kpt #:     5
     total cpu time spent up to now is        3.9 secs

     Computing kpt #:     6
     total cpu time spent up to now is        4.6 secs

     Computing kpt #:     7
     total cpu time spent up to now is        5.3 secs

     Computing kpt #:     8
     total cpu time spent up to now is        5.9 secs

     Computing kpt #:     9
     total cpu time spent up to now is        6.5 secs

     Computing kpt #:    10
     total cpu time spent up to now is        7.1 secs

     Computing kpt #:    11
     total cpu time spent up to now is        7.7 secs

     Computing kpt #:    12
     total cpu time spent up to now is        8.4 secs

     Computing kpt #:    13
     total cpu time spent up to now is        9.1 secs

     Computing kpt #:    14
     total cpu time spent up to now is        9.7 secs

     Computing kpt #:    15
     total cpu time spent up to now is       10.3 secs

     ethr =  3.85E-13,  avg # of iterations = 37.8

     total cpu time spent up to now is       10.4 secs

     End of band structure calculation

          k = 0.0000 0.0000 0.0000 (  3949 PWs)   bands (ev):

   -66.7334 -66.7334 -42.4733 -42.4733 -40.0459 -40.0459 -39.8877 -39.8877
   -20.0517 -20.0517 -18.7477 -18.7477 -11.5647 -11.5647  -8.5456  -8.5456
    -8.4804  -8.4804  -7.7327  -7.7327  -7.4312  -7.4312  -7.3458  -7.3458
    -5.9546  -5.9546  -3.1456  -3.1456  -3.0659  -3.0659  -2.8710  -2.8710
    -2.8688  -2.8688   0.0056   0.0056   0.5263   0.5263   0.7736   0.7736

          k = 0.0000 0.0962 0.0000 (  3957 PWs)   bands (ev):

   -66.7308 -66.7308 -42.4804 -42.4804 -40.0490 -40.0490 -39.9052 -39.9052
   -19.9476 -19.9476 -18.7048 -18.7048 -11.4454 -11.4454  -8.7475  -8.7475
    -8.4028  -8.4028  -8.1999  -8.1999  -7.5555  -7.5555  -7.0816  -7.0816
    -6.0032  -6.0032  -3.2499  -3.2499  -3.1548  -3.1548  -2.9954  -2.9954
    -2.9081  -2.9081   0.2942   0.2942   0.6559   0.6559   1.1320   1.1320

          k = 0.0000 0.1925 0.0000 (  3983 PWs)   bands (ev):

   -66.7235 -66.7235 -42.5004 -42.5004 -40.0614 -40.0614 -39.9479 -39.9479
   -19.6515 -19.6515 -18.5829 -18.5829 -11.1459 -11.1459  -9.2768  -9.2768
    -8.8516  -8.8516  -8.0999  -8.0999  -7.9443  -7.9443  -7.0043  -7.0043
    -6.2296  -6.2296  -3.6121  -3.6121  -3.3007  -3.3007  -3.2510  -3.2510
    -2.5088  -2.5088   0.7588   0.7588   1.0202   1.0202   2.1509   2.1509

          k = 0.0000 0.2887 0.0000 (  3986 PWs)   bands (ev):

   -66.7135 -66.7135 -42.5288 -42.5288 -40.0945 -40.0945 -39.9874 -39.9874
   -19.2130 -19.2130 -18.4038 -18.4038 -10.9324 -10.9324  -9.7299  -9.7299
    -9.5137  -9.5137  -8.3871  -8.3871  -7.6742  -7.6742  -7.2580  -7.2580
    -6.6547  -6.6547  -3.7478  -3.7478  -3.5268  -3.5268  -2.9649  -2.9649
    -2.0880  -2.0880   1.2313   1.2313   1.5347   1.5347   2.8096   2.8096

          k = 0.0000 0.3849 0.0000 (  4008 PWs)   bands (ev):

   -66.7035 -66.7035 -42.5587 -42.5587 -40.1464 -40.1464 -40.0051 -40.0051
   -18.7205 -18.7205 -18.2068 -18.2068 -11.1824 -11.1824 -10.1312 -10.1312
    -9.8225  -9.8225  -8.7567  -8.7567  -7.5724  -7.5724  -7.2471  -7.2471
    -6.8944  -6.8944  -3.6844  -3.6844  -3.5543  -3.5543  -2.4767  -2.4767
    -1.7830  -1.7830   1.6335   1.6335   1.9261   1.9261   2.0740   2.0740

          k = 0.0000 0.4811 0.0000 (  4004 PWs)   bands (ev):

   -66.6962 -66.6962 -42.5815 -42.5815 -40.1897 -40.1897 -40.0108 -40.0108
   -18.3101 -18.3101 -18.0483 -18.0483 -11.5640 -11.5640 -10.5806 -10.5806
    -9.9269  -9.9269  -8.9964  -8.9964  -7.7640  -7.7640  -6.9610  -6.9610
    -6.7134  -6.7134  -3.6692  -3.6692  -3.2763  -3.2763  -2.1172  -2.1172
    -1.6171  -1.6171   0.8468   0.8468   2.0022   2.0022   2.1724   2.1724

          k = 0.0000 0.5774 0.0000 (  4000 PWs)   bands (ev):

   -66.6935 -66.6935 -42.5900 -42.5900 -40.2059 -40.2059 -40.0120 -40.0120
   -18.1452 -18.1452 -17.9867 -17.9867 -11.7272 -11.7272 -10.7472 -10.7472
   -10.0057 -10.0057  -9.0790  -9.0790  -7.8260  -7.8260  -6.8608  -6.8608
    -6.5461  -6.5461  -3.6346  -3.6346  -3.1162  -3.1162  -2.0013  -2.0013
    -1.5665  -1.5665   0.3285   0.3285   2.0770   2.0770   2.4085   2.4085

          k = 0.0000 0.6736 0.0000 (  4004 PWs)   bands (ev):

   -66.6962 -66.6962 -42.5815 -42.5815 -40.1897 -40.1897 -40.0108 -40.0108
   -18.3101 -18.3101 -18.0483 -18.0483 -11.5640 -11.5640 -10.5806 -10.5806
    -9.9269  -9.9269  -8.9964  -8.9964  -7.7640  -7.7640  -6.9610  -6.9610
    -6.7134  -6.7134  -3.6692  -3.6692  -3.2763  -3.2763  -2.1172  -2.1172
    -1.6171  -1.6171   0.8468   0.8468   2.0022   2.0022   2.1724   2.1724

          k = 0.0000 0.7698 0.0000 (  4008 PWs)   bands (ev):

   -66.7035 -66.7035 -42.5587 -42.5587 -40.1464 -40.1464 -40.0051 -40.0051
   -18.7205 -18.7205 -18.2068 -18.2068 -11.1824 -11.1824 -10.1312 -10.1312
    -9.8225  -9.8225  -8.7567  -8.7567  -7.5724  -7.5724  -7.2471  -7.2471
    -6.8944  -6.8944  -3.6844  -3.6844  -3.5543  -3.5543  -2.4767  -2.4767
    -1.7830  -1.7830   1.6335   1.6335   1.9261   1.9261   2.0740   2.0740

          k = 0.0000 0.8660 0.0000 (  3986 PWs)   bands (ev):

   -66.7135 -66.7135 -42.5288 -42.5288 -40.0945 -40.0945 -39.9874 -39.9874
   -19.2130 -19.2130 -18.4038 -18.4038 -10.9324 -10.9324  -9.7299  -9.7299
    -9.5137  -9.5137  -8.3871  -8.3871  -7.6742  -7.6742  -7.2580  -7.2580
    -6.6547  -6.6547  -3.7478  -3.7478  -3.5268  -3.5268  -2.9649  -2.9649
    -2.0880  -2.0880   1.2313   1.2313   1.5347   1.5347   2.8096   2.8096

          k = 0.0000 0.9623 0.0000 (  3983 PWs)   bands (ev):

   -66.7235 -66.7235 -42.5004 -42.5004 -40.0614 -40.0614 -39.9479 -39.9479
   -19.6515 -19.6515 -18.5829 -18.5829 -11.1459 -11.1459  -9.2768  -9.2768
    -8.8516  -8.8516  -8.0999  -8.0999  -7.9443  -7.9443  -7.0043  -7.0043
    -6.2296  -6.2296  -3.6121  -3.6121  -3.3007  -3.3007  -3.2510  -3.2510
    -2.5088  -2.5088   0.7588   0.7588   1.0202   1.0202   2.1509   2.1509

          k = 0.0000 1.0585 0.0000 (  3957 PWs)   bands (ev):

   -66.7308 -66.7308 -42.4804 -42.4804 -40.0490 -40.0490 -39.9052 -39.9052
   -19.9476 -19.9476 -18.7048 -18.7048 -11.4454 -11.4454  -8.7475  -8.7475
    -8.4028  -8.4028  -8.1999  -8.1999  -7.5555  -7.5555  -7.0816  -7.0816
    -6.0032  -6.0032  -3.2499  -3.2499  -3.1548  -3.1548  -2.9954  -2.9954
    -2.9081  -2.9081   0.2942   0.2942   0.6559   0.6559   1.1320   1.1320

          k = 0.0833 0.0481 0.0000 (  3957 PWs)   bands (ev):

   -66.7308 -66.7308 -42.4804 -42.4804 -40.0490 -40.0490 -39.9052 -39.9052
   -19.9476 -19.9476 -18.7048 -18.7048 -11.4454 -11.4454  -8.7475  -8.7475
    -8.4028  -8.4028  -8.1999  -8.1999  -7.5555  -7.5555  -7.0816  -7.0816
    -6.0032  -6.0032  -3.2499  -3.2499  -3.1548  -3.1548  -2.9954  -2.9954
    -2.9081  -2.9081   0.2942   0.2942   0.6559   0.6559   1.1320   1.1320

          k = 0.0833 0.1443 0.0000 (  3968 PWs)   bands (ev):

   -66.7258 -66.7258 -42.4945 -42.4933 -40.0568 -40.0560 -39.9369 -39.9343
   -19.7484 -19.7463 -18.6224 -18.6222 -11.2336 -11.2309  -9.1256  -9.1140
    -8.6350  -8.6344  -8.2158  -8.1902  -7.9450  -7.9387  -6.9079  -6.8825
    -6.1437  -6.1386  -3.5167  -3.5039  -3.4079  -3.3545  -3.2068  -3.1789
    -2.6088  -2.5597   0.6471   0.6504   0.9042   0.9043   1.8594   1.8626

          k = 0.0833 0.2406 0.0000 (  3991 PWs)   bands (ev):

   -66.7172 -66.7172 -42.5198 -42.5165 -40.0780 -40.0771 -39.9812 -39.9755
   -19.3822 -19.3759 -18.4710 -18.4705 -10.9489 -10.9389  -9.5979  -9.5941
    -9.1851  -9.1753  -8.5018  -8.4972  -7.9085  -7.8691  -6.9447  -6.9155
    -6.4918  -6.4662  -3.8246  -3.7978  -3.4318  -3.4224  -3.3286  -3.2620
    -2.1453  -2.0986   1.1171   1.1237   1.3580   1.3584   2.9153   2.9166

          k = 0.0833 0.3368 0.0000 (  4006 PWs)   bands (ev):

   -66.7072 -66.7072 -42.5502 -42.5444 -40.1224 -40.1190 -40.0086 -40.0039
   -18.9159 -18.9039 -18.2799 -18.2790 -10.9780 -10.9647  -9.8457  -9.8350
    -9.7733  -9.7673  -8.8749  -8.8655  -7.6808  -7.6147  -7.2416  -7.2180
    -6.8026  -6.7366  -3.9008  -3.8389  -3.4799  -3.4536  -2.9276  -2.8784
    -1.7810  -1.7443   1.6111   1.6253   1.8887   1.8889   2.6690   2.6778

          k = 0.0833 0.4330 0.0000 (  4017 PWs)   bands (ev):

   -66.6985 -66.6985 -42.5775 -42.5695 -40.1733 -40.1647 -40.0186 -40.0159
   -18.4594 -18.4409 -18.0968 -18.0955 -11.3208 -11.3204 -10.4360 -10.4285
    -9.8131  -9.8131  -9.0434  -9.0342  -7.6075  -7.5814  -7.5210  -7.4876
    -6.7000  -6.6098  -3.7422  -3.7061  -3.3510  -3.3404  -2.4393  -2.4047
    -1.6325  -1.6086   1.4565   1.4608   2.2112   2.2141   2.2401   2.2407

          k = 0.0833 0.5292 0.0000 (  4025 PWs)   bands (ev):

   -66.6935 -66.6935 -42.5937 -42.5845 -40.2044 -40.1929 -40.0216 -40.0201
   -18.1642 -18.1409 -17.9817 -17.9802 -11.5927 -11.5810 -10.7827 -10.7772
    -9.9487  -9.9409  -9.0976  -9.0885  -7.7842  -7.7797  -7.4302  -7.3596
    -6.4623  -6.3613  -3.6433  -3.6041  -3.1669  -3.0713  -2.0422  -2.0141
    -1.7244  -1.7068   0.5716   0.5883   2.4970   2.5000   2.6400   2.6538

          k = 0.0833 0.6255 0.0000 (  4025 PWs)   bands (ev):

   -66.6935 -66.6935 -42.5937 -42.5845 -40.2044 -40.1929 -40.0216 -40.0201
   -18.1642 -18.1409 -17.9817 -17.9802 -11.5927 -11.5810 -10.7827 -10.7772
    -9.9487  -9.9409  -9.0976  -9.0885  -7.7842  -7.7797  -7.4302  -7.3596
    -6.4623  -6.3613  -3.6433  -3.6041  -3.1669  -3.0713  -2.0422  -2.0141
    -1.7244  -1.7068   0.5716   0.5883   2.4970   2.5000   2.6400   2.6538

          k = 0.0833 0.7217 0.0000 (  4017 PWs)   bands (ev):

   -66.6985 -66.6985 -42.5775 -42.5695 -40.1733 -40.1647 -40.0186 -40.0159
   -18.4594 -18.4409 -18.0968 -18.0955 -11.3208 -11.3204 -10.4360 -10.4285
    -9.8131  -9.8131  -9.0434  -9.0342  -7.6075  -7.5814  -7.5210  -7.4876
    -6.7000  -6.6098  -3.7422  -3.7061  -3.3510  -3.3404  -2.4393  -2.4047
    -1.6325  -1.6086   1.4565   1.4608   2.2112   2.2141   2.2401   2.2407

          k = 0.0833 0.8179 0.0000 (  4006 PWs)   bands (ev):

   -66.7072 -66.7072 -42.5502 -42.5444 -40.1224 -40.1190 -40.0086 -40.0039
   -18.9159 -18.9039 -18.2799 -18.2790 -10.9780 -10.9647  -9.8457  -9.8350
    -9.7733  -9.7673  -8.8749  -8.8655  -7.6808  -7.6147  -7.2416  -7.2180
    -6.8026  -6.7366  -3.9008  -3.8389  -3.4799  -3.4536  -2.9276  -2.8784
    -1.7810  -1.7443   1.6111   1.6253   1.8887   1.8889   2.6690   2.6778

          k = 0.0833 0.9141 0.0000 (  3991 PWs)   bands (ev):

   -66.7172 -66.7172 -42.5198 -42.5165 -40.0780 -40.0771 -39.9812 -39.9755
   -19.3822 -19.3759 -18.4710 -18.4705 -10.9489 -10.9389  -9.5979  -9.5941
    -9.1851  -9.1753  -8.5018  -8.4972  -7.9085  -7.8691  -6.9447  -6.9155
    -6.4918  -6.4662  -3.8246  -3.7978  -3.4318  -3.4224  -3.3286  -3.2620
    -2.1453  -2.0986   1.1171   1.1237   1.3580   1.3584   2.9153   2.9166

          k = 0.0833 1.0104 0.0000 (  3968 PWs)   bands (ev):

   -66.7258 -66.7258 -42.4945 -42.4933 -40.0568 -40.0560 -39.9369 -39.9343
   -19.7484 -19.7463 -18.6224 -18.6222 -11.2336 -11.2309  -9.1256  -9.1140
    -8.6350  -8.6344  -8.2158  -8.1902  -7.9450  -7.9387  -6.9079  -6.8825
    -6.1437  -6.1386  -3.5167  -3.5039  -3.4079  -3.3545  -3.2068  -3.1789
    -2.6088  -2.5597   0.6471   0.6504   0.9042   0.9043   1.8594   1.8626

          k = 0.0833 1.1066 0.0000 (  3957 PWs)   bands (ev):

   -66.7308 -66.7308 -42.4804 -42.4804 -40.0490 -40.0490 -39.9052 -39.9052
   -19.9476 -19.9476 -18.7048 -18.7048 -11.4454 -11.4454  -8.7475  -8.7475
    -8.4028  -8.4028  -8.1999  -8.1999  -7.5555  -7.5555  -7.0816  -7.0816
    -6.0032  -6.0032  -3.2499  -3.2499  -3.1548  -3.1548  -2.9954  -2.9954
    -2.9081  -2.9081   0.2942   0.2942   0.6559   0.6559   1.1320   1.1320

          k = 0.1667 0.0962 0.0000 (  3983 PWs)   bands (ev):

   -66.7235 -66.7235 -42.5004 -42.5004 -40.0614 -40.0614 -39.9479 -39.9479
   -19.6515 -19.6515 -18.5829 -18.5829 -11.1459 -11.1459  -9.2768  -9.2768
    -8.8516  -8.8516  -8.0999  -8.0999  -7.9443  -7.9443  -7.0043  -7.0043
    -6.2296  -6.2296  -3.6121  -3.6121  -3.3007  -3.3007  -3.2510  -3.2510
    -2.5088  -2.5088   0.7588   0.7588   1.0202   1.0202   2.1509   2.1509

          k = 0.1667 0.1925 0.0000 (  3991 PWs)   bands (ev):

   -66.7172 -66.7172 -42.5198 -42.5165 -40.0780 -40.0771 -39.9812 -39.9755
   -19.3822 -19.3759 -18.4710 -18.4705 -10.9489 -10.9389  -9.5979  -9.5941
    -9.1851  -9.1753  -8.5018  -8.4972  -7.9085  -7.8691  -6.9447  -6.9155
    -6.4918  -6.4662  -3.8246  -3.7978  -3.4318  -3.4224  -3.3286  -3.2620
    -2.1453  -2.0986   1.1171   1.1237   1.3580   1.3584   2.9153   2.9166

          k = 0.1667 0.2887 0.0000 (  4006 PWs)   bands (ev):

   -66.7085 -66.7085 -42.5469 -42.5390 -40.1097 -40.1060 -40.0141 -40.0066
   -18.9856 -18.9695 -18.3052 -18.3040 -10.8770 -10.8537  -9.7428  -9.7333
    -9.6181  -9.5882  -9.1331  -9.1044  -7.9063  -7.8306  -6.9867  -6.9517
    -6.7440  -6.6718  -4.0162  -3.9466  -3.4224  -3.4048  -3.2243  -3.1672
    -1.7186  -1.6796   1.6369   1.6526   1.8674   1.8686   3.0917   3.1069

          k = 0.1667 0.3849 0.0000 (  4002 PWs)   bands (ev):

   -66.6998 -66.6998 -42.5747 -42.5621 -40.1550 -40.1411 -40.0330 -40.0291
   -18.5458 -18.5174 -18.1208 -18.1187 -11.0638 -11.0512 -10.3128 -10.2967
    -9.6485  -9.6381  -9.2393  -9.2189  -8.1866  -8.1142  -7.2862  -7.2648
    -6.7051  -6.6087  -3.8663  -3.7979  -3.3137  -3.3104  -2.8920  -2.8601
    -1.4749  -1.4638   1.9930   2.0240   2.4240   2.4243   2.4858   2.5256

          k = 0.1667 0.4811 0.0000 (  4030 PWs)   bands (ev):

   -66.6935 -66.6935 -42.5954 -42.5793 -40.1926 -40.1702 -40.0414 -40.0412
   -18.1868 -18.1469 -17.9708 -17.9681 -11.2641 -11.2522 -10.8449 -10.8351
    -9.7590  -9.7551  -9.1529  -9.1351  -8.3058  -8.2412  -7.6549  -7.6441
    -6.4602  -6.3515  -3.6890  -3.6623  -3.1370  -3.0213  -2.5408  -2.5377
    -1.4518  -1.4249   1.1811   1.2066   2.8671   2.8845   2.9393   2.9454

          k = 0.1667 0.5774 0.0000 (  4050 PWs)   bands (ev):

   -66.6912 -66.6912 -42.6030 -42.5857 -40.2069 -40.1814 -40.0449 -40.0438
   -18.0451 -18.0003 -17.9120 -17.9094 -11.3445 -11.3185 -11.0382 -11.0307
    -9.8895  -9.8766  -9.0790  -9.0603  -8.2999  -8.2380  -7.8321  -7.8265
    -6.2856  -6.1695  -3.7622  -3.7141  -2.9146  -2.7649  -2.4015  -2.3769
    -1.4968  -1.4470   0.7030   0.7353   3.2419   3.3191   3.3751   3.3797

          k = 0.1667 0.6736 0.0000 (  4030 PWs)   bands (ev):

   -66.6935 -66.6935 -42.5954 -42.5793 -40.1926 -40.1702 -40.0414 -40.0412
   -18.1868 -18.1469 -17.9708 -17.9681 -11.2641 -11.2522 -10.8449 -10.8351
    -9.7590  -9.7551  -9.1529  -9.1351  -8.3058  -8.2412  -7.6549  -7.6441
    -6.4602  -6.3515  -3.6890  -3.6623  -3.1370  -3.0213  -2.5408  -2.5377
    -1.4518  -1.4249   1.1811   1.2066   2.8671   2.8845   2.9393   2.9454

          k = 0.1667 0.7698 0.0000 (  4002 PWs)   bands (ev):

   -66.6998 -66.6998 -42.5747 -42.5621 -40.1550 -40.1411 -40.0330 -40.0291
   -18.5458 -18.5174 -18.1208 -18.1187 -11.0638 -11.0512 -10.3128 -10.2967
    -9.6485  -9.6381  -9.2393  -9.2189  -8.1866  -8.1142  -7.2862  -7.2648
    -6.7051  -6.6087  -3.8663  -3.7979  -3.3137  -3.3104  -2.8920  -2.8601
    -1.4749  -1.4638   1.9930   2.0240   2.4240   2.4243   2.4858   2.5256

          k = 0.1667 0.8660 0.0000 (  4006 PWs)   bands (ev):

   -66.7085 -66.7085 -42.5469 -42.5390 -40.1097 -40.1060 -40.0141 -40.0066
   -18.9856 -18.9695 -18.3052 -18.3040 -10.8770 -10.8537  -9.7428  -9.7333
    -9.6181  -9.5882  -9.1331  -9.1044  -7.9063  -7.8306  -6.9867  -6.9517
    -6.7440  -6.6718  -4.0162  -3.9466  -3.4224  -3.4048  -3.2243  -3.1672
    -1.7186  -1.6796   1.6369   1.6526   1.8674   1.8686   3.0917   3.1069

          k = 0.1667 0.9623 0.0000 (  3991 PWs)   bands (ev):

   -66.7172 -66.7172 -42.5198 -42.5165 -40.0780 -40.0771 -39.9812 -39.9755
   -19.3822 -19.3759 -18.4710 -18.4705 -10.9489 -10.9389  -9.5979  -9.5941
    -9.1851  -9.1753  -8.5018  -8.4972  -7.9085  -7.8691  -6.9447  -6.9155
    -6.4918  -6.4662  -3.8246  -3.7978  -3.4318  -3.4224  -3.3286  -3.2620
    -2.1453  -2.0986   1.1171   1.1237   1.3580   1.3584   2.9153   2.9166

          k = 0.1667 1.0585 0.0000 (  3983 PWs)   bands (ev):

   -66.7235 -66.7235 -42.5004 -42.5004 -40.0614 -40.0614 -39.9479 -39.9479
   -19.6515 -19.6515 -18.5829 -18.5829 -11.1459 -11.1459  -9.2768  -9.2768
    -8.8516  -8.8516  -8.0999  -8.0999  -7.9443  -7.9443  -7.0043  -7.0043
    -6.2296  -6.2296  -3.6121  -3.6121  -3.3007  -3.3007  -3.2510  -3.2510
    -2.5088  -2.5088   0.7588   0.7588   1.0202   1.0202   2.1509   2.1509

          k = 0.1667 1.1547 0.0000 (  3968 PWs)   bands (ev):

   -66.7258 -66.7258 -42.4945 -42.4933 -40.0568 -40.0560 -39.9369 -39.9343
   -19.7484 -19.7463 -18.6224 -18.6222 -11.2336 -11.2309  -9.1256  -9.1140
    -8.6350  -8.6344  -8.2158  -8.1902  -7.9450  -7.9387  -6.9079  -6.8825
    -6.1437  -6.1386  -3.5167  -3.5039  -3.4079  -3.3545  -3.2068  -3.1789
    -2.6088  -2.5597   0.6471   0.6504   0.9042   0.9043   1.8594   1.8626

          k = 0.2500 0.1443 0.0000 (  3986 PWs)   bands (ev):

   -66.7135 -66.7135 -42.5288 -42.5288 -40.0945 -40.0945 -39.9874 -39.9874
   -19.2130 -19.2130 -18.4038 -18.4038 -10.9324 -10.9324  -9.7299  -9.7299
    -9.5137  -9.5137  -8.3871  -8.3871  -7.6742  -7.6742  -7.2580  -7.2580
    -6.6547  -6.6547  -3.7478  -3.7478  -3.5268  -3.5268  -2.9649  -2.9649
    -2.0880  -2.0880   1.2313   1.2313   1.5347   1.5347   2.8096   2.8096

          k = 0.2500 0.2406 0.0000 (  4006 PWs)   bands (ev):

   -66.7072 -66.7072 -42.5502 -42.5444 -40.1224 -40.1190 -40.0086 -40.0039
   -18.9159 -18.9039 -18.2799 -18.2790 -10.9780 -10.9647  -9.8457  -9.8350
    -9.7733  -9.7673  -8.8749  -8.8655  -7.6808  -7.6147  -7.2416  -7.2180
    -6.8026  -6.7366  -3.9008  -3.8389  -3.4799  -3.4536  -2.9276  -2.8784
    -1.7810  -1.7443   1.6111   1.6253   1.8887   1.8889   2.6690   2.6778

          k = 0.2500 0.3368 0.0000 (  4002 PWs)   bands (ev):

   -66.6998 -66.6998 -42.5747 -42.5621 -40.1550 -40.1411 -40.0330 -40.0291
   -18.5458 -18.5174 -18.1208 -18.1187 -11.0638 -11.0512 -10.3128 -10.2967
    -9.6485  -9.6381  -9.2393  -9.2189  -8.1866  -8.1142  -7.2862  -7.2648
    -6.7051  -6.6087  -3.8663  -3.7979  -3.3137  -3.3104  -2.8920  -2.8601
    -1.4749  -1.4638   1.9930   2.0240   2.4240   2.4243   2.4858   2.5256

          k = 0.2500 0.4330 0.0000 (  4048 PWs)   bands (ev):

   -66.6935 -66.6935 -42.5957 -42.5772 -40.1847 -40.1562 -40.0550 -40.0526
   -18.1969 -18.1510 -17.9652 -17.9621 -11.0615 -11.0573 -10.8737 -10.8621
    -9.5277  -9.5209  -9.1895  -9.1703  -8.8615  -8.8065  -7.5759  -7.5662
    -6.4856  -6.3757  -3.7262  -3.7130  -3.1070  -2.9933  -2.7928  -2.7834
    -1.2923  -1.2552   1.7011   1.7176   2.5433   2.6080   3.0141   3.0178

          k = 0.2500 0.5292 0.0000 (  4050 PWs)   bands (ev):

   -66.6898 -66.6898 -42.6078 -42.5858 -40.2028 -40.1634 -40.0716 -40.0631
   -17.9806 -17.9232 -17.8659 -17.8626 -11.2213 -11.2126 -10.9462 -10.9178
    -9.7535  -9.7450  -9.1597  -9.1157  -8.9912  -8.9513  -7.9123  -7.9072
    -6.1836  -6.0555  -3.9661  -3.9454  -2.7631  -2.7608  -2.6384  -2.5217
    -1.1769  -1.1070   1.1686   1.2222   2.3562   2.4250   3.5256   3.5326

          k = 0.2500 0.6255 0.0000 (  4050 PWs)   bands (ev):

   -66.6898 -66.6898 -42.6078 -42.5858 -40.2028 -40.1634 -40.0716 -40.0631
   -17.9806 -17.9232 -17.8659 -17.8626 -11.2213 -11.2126 -10.9462 -10.9178
    -9.7535  -9.7450  -9.1597  -9.1157  -8.9912  -8.9513  -7.9123  -7.9072
    -6.1836  -6.0555  -3.9661  -3.9454  -2.7631  -2.7608  -2.6384  -2.5217
    -1.1769  -1.1070   1.1686   1.2222   2.3562   2.4250   3.5256   3.5326

          k = 0.2500 0.7217 0.0000 (  4048 PWs)   bands (ev):

   -66.6935 -66.6935 -42.5957 -42.5772 -40.1847 -40.1562 -40.0550 -40.0526
   -18.1969 -18.1510 -17.9652 -17.9621 -11.0615 -11.0573 -10.8737 -10.8621
    -9.5277  -9.5209  -9.1895  -9.1703  -8.8615  -8.8065  -7.5759  -7.5662
    -6.4856  -6.3757  -3.7262  -3.7130  -3.1070  -2.9933  -2.7928  -2.7834
    -1.2923  -1.2552   1.7011   1.7176   2.5433   2.6080   3.0141   3.0178

          k = 0.2500 0.8179 0.0000 (  4002 PWs)   bands (ev):

   -66.6998 -66.6998 -42.5747 -42.5621 -40.1550 -40.1411 -40.0330 -40.0291
   -18.5458 -18.5174 -18.1208 -18.1187 -11.0638 -11.0512 -10.3128 -10.2967
    -9.6485  -9.6381  -9.2393  -9.2189  -8.1866  -8.1142  -7.2862  -7.2648
    -6.7051  -6.6087  -3.8663  -3.7979  -3.3137  -3.3104  -2.8920  -2.8601
    -1.4749  -1.4638   1.9930   2.0240   2.4240   2.4243   2.4858   2.5256

          k = 0.2500 0.9141 0.0000 (  4006 PWs)   bands (ev):

   -66.7072 -66.7072 -42.5502 -42.5444 -40.1224 -40.1190 -40.0086 -40.0039
   -18.9159 -18.9039 -18.2799 -18.2790 -10.9780 -10.9647  -9.8457  -9.8350
    -9.7733  -9.7673  -8.8749  -8.8655  -7.6808  -7.6147  -7.2416  -7.2180
    -6.8026  -6.7366  -3.9008  -3.8389  -3.4799  -3.4536  -2.9276  -2.8784
    -1.7810  -1.7443   1.6111   1.6253   1.8887   1.8889   2.6690   2.6778

          k = 0.2500 1.0104 0.0000 (  3986 PWs)   bands (ev):

   -66.7135 -66.7135 -42.5288 -42.5288 -40.0945 -40.0945 -39.9874 -39.9874
   -19.2130 -19.2130 -18.4038 -18.4038 -10.9324 -10.9324  -9.7299  -9.7299
    -9.5137  -9.5137  -8.3871  -8.3871  -7.6742  -7.6742  -7.2580  -7.2580
    -6.6547  -6.6547  -3.7478  -3.7478  -3.5268  -3.5268  -2.9649  -2.9649
    -2.0880  -2.0880   1.2313   1.2313   1.5347   1.5347   2.8096   2.8096

          k = 0.2500 1.1066 0.0000 (  3991 PWs)   bands (ev):

   -66.7172 -66.7172 -42.5198 -42.5165 -40.0780 -40.0771 -39.9812 -39.9755
   -19.3822 -19.3759 -18.4710 -18.4705 -10.9489 -10.9389  -9.5979  -9.5941
    -9.1851  -9.1753  -8.5018  -8.4972  -7.9085  -7.8691  -6.9447  -6.9155
    -6.4918  -6.4662  -3.8246  -3.7978  -3.4318  -3.4224  -3.3286  -3.2620
    -2.1453  -2.0986   1.1171   1.1237   1.3580   1.3584   2.9153   2.9166

          k = 0.2500 1.2028 0.0000 (  3991 PWs)   bands (ev):

   -66.7172 -66.7172 -42.5198 -42.5165 -40.0780 -40.0771 -39.9812 -39.9755
   -19.3822 -19.3759 -18.4710 -18.4705 -10.9489 -10.9389  -9.5979  -9.5941
    -9.1851  -9.1753  -8.5018  -8.4972  -7.9085  -7.8691  -6.9447  -6.9155
    -6.4918  -6.4662  -3.8246  -3.7978  -3.4318  -3.4224  -3.3286  -3.2620
    -2.1453  -2.0986   1.1171   1.1237   1.3580   1.3584   2.9153   2.9166

          k = 0.3333 0.1925 0.0000 (  4008 PWs)   bands (ev):

   -66.7035 -66.7035 -42.5587 -42.5587 -40.1464 -40.1464 -40.0051 -40.0051
   -18.7205 -18.7205 -18.2068 -18.2068 -11.1824 -11.1824 -10.1312 -10.1312
    -9.8225  -9.8225  -8.7567  -8.7567  -7.5724  -7.5724  -7.2471  -7.2471
    -6.8944  -6.8944  -3.6844  -3.6844  -3.5543  -3.5543  -2.4767  -2.4767
    -1.7830  -1.7830   1.6335   1.6335   1.9261   1.9261   2.0740   2.0740

          k = 0.3333 0.2887 0.0000 (  4017 PWs)   bands (ev):

   -66.6985 -66.6985 -42.5775 -42.5695 -40.1733 -40.1647 -40.0186 -40.0159
   -18.4594 -18.4409 -18.0968 -18.0955 -11.3208 -11.3204 -10.4360 -10.4285
    -9.8131  -9.8131  -9.0434  -9.0342  -7.6075  -7.5814  -7.5210  -7.4876
    -6.7000  -6.6098  -3.7422  -3.7061  -3.3510  -3.3404  -2.4393  -2.4047
    -1.6325  -1.6086   1.4565   1.4608   2.2112   2.2141   2.2401   2.2407

          k = 0.3333 0.3849 0.0000 (  4030 PWs)   bands (ev):

   -66.6935 -66.6935 -42.5954 -42.5793 -40.1926 -40.1702 -40.0414 -40.0412
   -18.1868 -18.1469 -17.9708 -17.9681 -11.2641 -11.2522 -10.8449 -10.8351
    -9.7590  -9.7551  -9.1529  -9.1351  -8.3058  -8.2412  -7.6549  -7.6441
    -6.4602  -6.3515  -3.6890  -3.6623  -3.1370  -3.0213  -2.5408  -2.5377
    -1.4518  -1.4249   1.1811   1.2066   2.8671   2.8845   2.9393   2.9454

          k = 0.3333 0.4811 0.0000 (  4050 PWs)   bands (ev):

   -66.6898 -66.6898 -42.6078 -42.5858 -40.2028 -40.1634 -40.0716 -40.0631
   -17.9806 -17.9232 -17.8659 -17.8626 -11.2213 -11.2126 -10.9462 -10.9178
    -9.7535  -9.7450  -9.1597  -9.1157  -8.9912  -8.9513  -7.9123  -7.9072
    -6.1836  -6.0555  -3.9661  -3.9454  -2.7631  -2.7608  -2.6384  -2.5217
    -1.1769  -1.1070   1.1686   1.2222   2.3562   2.4250   3.5256   3.5326

          k = 0.3333 0.5774 0.0000 (  4050 PWs)   bands (ev):

   -66.6885 -66.6885 -42.6123 -42.5880 -40.2056 -40.1558 -40.0880 -40.0722
   -17.9037 -17.8398 -17.8243 -17.8212 -11.3691 -11.3613 -10.5520 -10.5164
   -10.0392  -9.9808  -9.4835  -9.4653  -8.8386  -8.7883  -8.1140  -8.0906
    -6.0030  -5.8551  -4.1924  -4.1894  -2.8638  -2.8321  -2.4108  -2.2693
    -1.0303  -0.9476   1.3524   1.4742   1.7718   1.7747   3.8061   3.8142

          k = 0.3333 0.6736 0.0000 (  4050 PWs)   bands (ev):

   -66.6898 -66.6898 -42.6078 -42.5858 -40.2028 -40.1634 -40.0716 -40.0631
   -17.9806 -17.9232 -17.8659 -17.8626 -11.2213 -11.2126 -10.9462 -10.9178
    -9.7535  -9.7450  -9.1597  -9.1157  -8.9912  -8.9513  -7.9123  -7.9072
    -6.1836  -6.0555  -3.9661  -3.9454  -2.7631  -2.7608  -2.6384  -2.5217
    -1.1769  -1.1070   1.1686   1.2222   2.3562   2.4250   3.5256   3.5326

          k = 0.3333 0.7698 0.0000 (  4030 PWs)   bands (ev):

   -66.6935 -66.6935 -42.5954 -42.5793 -40.1926 -40.1702 -40.0414 -40.0412
   -18.1868 -18.1469 -17.9708 -17.9681 -11.2641 -11.2522 -10.8449 -10.8351
    -9.7590  -9.7551  -9.1529  -9.1351  -8.3058  -8.2412  -7.6549  -7.6441
    -6.4602  -6.3515  -3.6890  -3.6623  -3.1370  -3.0213  -2.5408  -2.5377
    -1.4518  -1.4249   1.1811   1.2066   2.8671   2.8845   2.9393   2.9454

          k = 0.3333 0.8660 0.0000 (  4017 PWs)   bands (ev):

   -66.6985 -66.6985 -42.5775 -42.5695 -40.1733 -40.1647 -40.0186 -40.0159
   -18.4594 -18.4409 -18.0968 -18.0955 -11.3208 -11.3204 -10.4360 -10.4285
    -9.8131  -9.8131  -9.0434  -9.0342  -7.6075  -7.5814  -7.5210  -7.4876
    -6.7000  -6.6098  -3.7422  -3.7061  -3.3510  -3.3404  -2.4393  -2.4047
    -1.6325  -1.6086   1.4565   1.4608   2.2112   2.2141   2.2401   2.2407

          k = 0.3333 0.9623 0.0000 (  4008 PWs)   bands (ev):

   -66.7035 -66.7035 -42.5587 -42.5587 -40.1464 -40.1464 -40.0051 -40.0051
   -18.7205 -18.7205 -18.2068 -18.2068 -11.1824 -11.1824 -10.1312 -10.1312
    -9.8225  -9.8225  -8.7567  -8.7567  -7.5724  -7.5724  -7.2471  -7.2471
    -6.8944  -6.8944  -3.6844  -3.6844  -3.5543  -3.5543  -2.4767  -2.4767
    -1.7830  -1.7830   1.6335   1.6335   1.9261   1.9261   2.0740   2.0740

          k = 0.3333 1.0585 0.0000 (  4006 PWs)   bands (ev):

   -66.7072 -66.7072 -42.5502 -42.5444 -40.1224 -40.1190 -40.0086 -40.0039
   -18.9159 -18.9039 -18.2799 -18.2790 -10.9780 -10.9647  -9.8457  -9.8350
    -9.7733  -9.7673  -8.8749  -8.8655  -7.6808  -7.6147  -7.2416  -7.2180
    -6.8026  -6.7366  -3.9008  -3.8389  -3.4799  -3.4536  -2.9276  -2.8784
    -1.7810  -1.7443   1.6111   1.6253   1.8887   1.8889   2.6690   2.6778

          k = 0.3333 1.1547 0.0000 (  4006 PWs)   bands (ev):

   -66.7085 -66.7085 -42.5469 -42.5390 -40.1097 -40.1060 -40.0141 -40.0066
   -18.9856 -18.9695 -18.3052 -18.3040 -10.8770 -10.8537  -9.7428  -9.7333
    -9.6181  -9.5882  -9.1331  -9.1044  -7.9063  -7.8306  -6.9867  -6.9517
    -6.7440  -6.6718  -4.0162  -3.9466  -3.4224  -3.4048  -3.2243  -3.1672
    -1.7186  -1.6796   1.6369   1.6526   1.8674   1.8686   3.0917   3.1069

          k = 0.3333 1.2509 0.0000 (  4006 PWs)   bands (ev):

   -66.7072 -66.7072 -42.5502 -42.5444 -40.1224 -40.1190 -40.0086 -40.0039
   -18.9159 -18.9039 -18.2799 -18.2790 -10.9780 -10.9647  -9.8457  -9.8350
    -9.7733  -9.7673  -8.8749  -8.8655  -7.6808  -7.6147  -7.2416  -7.2180
    -6.8026  -6.7366  -3.9008  -3.8389  -3.4799  -3.4536  -2.9276  -2.8784
    -1.7810  -1.7443   1.6111   1.6253   1.8887   1.8889   2.6690   2.6778

          k = 0.4167 0.2406 0.0000 (  4004 PWs)   bands (ev):

   -66.6962 -66.6962 -42.5815 -42.5815 -40.1897 -40.1897 -40.0108 -40.0108
   -18.3101 -18.3101 -18.0483 -18.0483 -11.5640 -11.5640 -10.5806 -10.5806
    -9.9269  -9.9269  -8.9964  -8.9964  -7.7640  -7.7640  -6.9610  -6.9610
    -6.7134  -6.7134  -3.6692  -3.6692  -3.2763  -3.2763  -2.1172  -2.1172
    -1.6171  -1.6171   0.8468   0.8468   2.0022   2.0022   2.1724   2.1724

          k = 0.4167 0.3368 0.0000 (  4025 PWs)   bands (ev):

   -66.6935 -66.6935 -42.5937 -42.5845 -40.2044 -40.1929 -40.0216 -40.0201
   -18.1642 -18.1409 -17.9817 -17.9802 -11.5927 -11.5810 -10.7827 -10.7772
    -9.9487  -9.9409  -9.0976  -9.0885  -7.7842  -7.7797  -7.4302  -7.3596
    -6.4623  -6.3613  -3.6433  -3.6041  -3.1669  -3.0713  -2.0422  -2.0141
    -1.7244  -1.7068   0.5716   0.5883   2.4970   2.5000   2.6400   2.6538

          k = 0.4167 0.4330 0.0000 (  4050 PWs)   bands (ev):

   -66.6912 -66.6912 -42.6030 -42.5857 -40.2069 -40.1814 -40.0449 -40.0438
   -18.0451 -18.0003 -17.9120 -17.9094 -11.3445 -11.3185 -11.0382 -11.0307
    -9.8895  -9.8766  -9.0790  -9.0603  -8.2999  -8.2380  -7.8321  -7.8265
    -6.2856  -6.1695  -3.7622  -3.7141  -2.9146  -2.7649  -2.4015  -2.3769
    -1.4968  -1.4470   0.7030   0.7353   3.2419   3.3191   3.3751   3.3797

          k = 0.4167 0.5292 0.0000 (  4050 PWs)   bands (ev):

   -66.6898 -66.6898 -42.6078 -42.5858 -40.2028 -40.1634 -40.0716 -40.0631
   -17.9806 -17.9232 -17.8659 -17.8626 -11.2213 -11.2126 -10.9462 -10.9178
    -9.7535  -9.7450  -9.1597  -9.1157  -8.9912  -8.9513  -7.9123  -7.9072
    -6.1836  -6.0555  -3.9661  -3.9454  -2.7631  -2.7608  -2.6384  -2.5217
    -1.1769  -1.1070   1.1686   1.2222   2.3562   2.4250   3.5256   3.5326

          k = 0.4167 0.6255 0.0000 (  4050 PWs)   bands (ev):

   -66.6898 -66.6898 -42.6078 -42.5858 -40.2028 -40.1634 -40.0716 -40.0631
   -17.9806 -17.9232 -17.8659 -17.8626 -11.2213 -11.2126 -10.9462 -10.9178
    -9.7535  -9.7450  -9.1597  -9.1157  -8.9912  -8.9513  -7.9123  -7.9072
    -6.1836  -6.0555  -3.9661  -3.9454  -2.7631  -2.7608  -2.6384  -2.5217
    -1.1769  -1.1070   1.1686   1.2222   2.3562   2.4250   3.5256   3.5326

          k = 0.4167 0.7217 0.0000 (  4050 PWs)   bands (ev):

   -66.6912 -66.6912 -42.6030 -42.5857 -40.2069 -40.1814 -40.0449 -40.0438
   -18.0451 -18.0003 -17.9120 -17.9094 -11.3445 -11.3185 -11.0382 -11.0307
    -9.8895  -9.8766  -9.0790  -9.0603  -8.2999  -8.2380  -7.8321  -7.8265
    -6.2856  -6.1695  -3.7622  -3.7141  -2.9146  -2.7649  -2.4015  -2.3769
    -1.4968  -1.4470   0.7030   0.7353   3.2419   3.3191   3.3751   3.3797

          k = 0.4167 0.8179 0.0000 (  4025 PWs)   bands (ev):

   -66.6935 -66.6935 -42.5937 -42.5845 -40.2044 -40.1929 -40.0216 -40.0201
   -18.1642 -18.1409 -17.9817 -17.9802 -11.5927 -11.5810 -10.7827 -10.7772
    -9.9487  -9.9409  -9.0976  -9.0885  -7.7842  -7.7797  -7.4302  -7.3596
    -6.4623  -6.3613  -3.6433  -3.6041  -3.1669  -3.0713  -2.0422  -2.0141
    -1.7244  -1.7068   0.5716   0.5883   2.4970   2.5000   2.6400   2.6538

          k = 0.4167 0.9141 0.0000 (  4004 PWs)   bands (ev):

   -66.6962 -66.6962 -42.5815 -42.5815 -40.1897 -40.1897 -40.0108 -40.0108
   -18.3101 -18.3101 -18.0483 -18.0483 -11.5640 -11.5640 -10.5806 -10.5806
    -9.9269  -9.9269  -8.9964  -8.9964  -7.7640  -7.7640  -6.9610  -6.9610
    -6.7134  -6.7134  -3.6692  -3.6692  -3.2763  -3.2763  -2.1172  -2.1172
    -1.6171  -1.6171   0.8468   0.8468   2.0022   2.0022   2.1724   2.1724

          k = 0.4167 1.0104 0.0000 (  4017 PWs)   bands (ev):

   -66.6985 -66.6985 -42.5775 -42.5695 -40.1733 -40.1647 -40.0186 -40.0159
   -18.4594 -18.4409 -18.0968 -18.0955 -11.3208 -11.3204 -10.4360 -10.4285
    -9.8131  -9.8131  -9.0434  -9.0342  -7.6075  -7.5814  -7.5210  -7.4876
    -6.7000  -6.6098  -3.7422  -3.7061  -3.3510  -3.3404  -2.4393  -2.4047
    -1.6325  -1.6086   1.4565   1.4608   2.2112   2.2141   2.2401   2.2407

          k = 0.4167 1.1066 0.0000 (  4002 PWs)   bands (ev):

   -66.6998 -66.6998 -42.5747 -42.5621 -40.1550 -40.1411 -40.0330 -40.0291
   -18.5458 -18.5174 -18.1208 -18.1187 -11.0638 -11.0512 -10.3128 -10.2967
    -9.6485  -9.6381  -9.2393  -9.2189  -8.1866  -8.1142  -7.2862  -7.2648
    -6.7051  -6.6087  -3.8663  -3.7979  -3.3137  -3.3104  -2.8920  -2.8601
    -1.4749  -1.4638   1.9930   2.0240   2.4240   2.4243   2.4858   2.5256

          k = 0.4167 1.2028 0.0000 (  4002 PWs)   bands (ev):

   -66.6998 -66.6998 -42.5747 -42.5621 -40.1550 -40.1411 -40.0330 -40.0291
   -18.5458 -18.5174 -18.1208 -18.1187 -11.0638 -11.0512 -10.3128 -10.2967
    -9.6485  -9.6381  -9.2393  -9.2189  -8.1866  -8.1142  -7.2862  -7.2648
    -6.7051  -6.6087  -3.8663  -3.7979  -3.3137  -3.3104  -2.8920  -2.8601
    -1.4749  -1.4638   1.9930   2.0240   2.4240   2.4243   2.4858   2.5256

          k = 0.4167 1.2990 0.0000 (  4017 PWs)   bands (ev):

   -66.6985 -66.6985 -42.5775 -42.5695 -40.1733 -40.1647 -40.0186 -40.0159
   -18.4594 -18.4409 -18.0968 -18.0955 -11.3208 -11.3204 -10.4360 -10.4285
    -9.8131  -9.8131  -9.0434  -9.0342  -7.6075  -7.5814  -7.5210  -7.4876
    -6.7000  -6.6098  -3.7422  -3.7061  -3.3510  -3.3404  -2.4393  -2.4047
    -1.6325  -1.6086   1.4565   1.4608   2.2112   2.2141   2.2401   2.2407

          k = 0.5000 0.2887 0.0000 (  4000 PWs)   bands (ev):

   -66.6935 -66.6935 -42.5900 -42.5900 -40.2059 -40.2059 -40.0120 -40.0120
   -18.1452 -18.1452 -17.9867 -17.9867 -11.7272 -11.7272 -10.7472 -10.7472
   -10.0057 -10.0057  -9.0790  -9.0790  -7.8260  -7.8260  -6.8608  -6.8608
    -6.5461  -6.5461  -3.6346  -3.6346  -3.1162  -3.1162  -2.0013  -2.0013
    -1.5665  -1.5665   0.3285   0.3285   2.0770   2.0770   2.4085   2.4085

          k = 0.5000 0.3849 0.0000 (  4025 PWs)   bands (ev):

   -66.6935 -66.6935 -42.5937 -42.5845 -40.2044 -40.1929 -40.0216 -40.0201
   -18.1642 -18.1409 -17.9817 -17.9802 -11.5927 -11.5810 -10.7827 -10.7772
    -9.9487  -9.9409  -9.0976  -9.0885  -7.7842  -7.7797  -7.4302  -7.3596
    -6.4623  -6.3613  -3.6433  -3.6041  -3.1669  -3.0713  -2.0422  -2.0141
    -1.7244  -1.7068   0.5716   0.5883   2.4970   2.5000   2.6400   2.6538

          k = 0.5000 0.4811 0.0000 (  4030 PWs)   bands (ev):

   -66.6935 -66.6935 -42.5954 -42.5793 -40.1926 -40.1702 -40.0414 -40.0412
   -18.1868 -18.1469 -17.9708 -17.9681 -11.2641 -11.2522 -10.8449 -10.8351
    -9.7590  -9.7551  -9.1529  -9.1351  -8.3058  -8.2412  -7.6549  -7.6441
    -6.4602  -6.3515  -3.6890  -3.6623  -3.1370  -3.0213  -2.5408  -2.5377
    -1.4518  -1.4249   1.1811   1.2066   2.8671   2.8845   2.9393   2.9454

          k = 0.5000 0.5774 0.0000 (  4048 PWs)   bands (ev):

   -66.6935 -66.6935 -42.5957 -42.5772 -40.1847 -40.1562 -40.0550 -40.0526
   -18.1969 -18.1510 -17.9652 -17.9621 -11.0615 -11.0573 -10.8737 -10.8621
    -9.5277  -9.5209  -9.1895  -9.1703  -8.8615  -8.8065  -7.5759  -7.5662
    -6.4856  -6.3757  -3.7262  -3.7130  -3.1070  -2.9933  -2.7928  -2.7834
    -1.2923  -1.2552   1.7011   1.7176   2.5433   2.6080   3.0141   3.0178

          k = 0.5000 0.6736 0.0000 (  4030 PWs)   bands (ev):

   -66.6935 -66.6935 -42.5954 -42.5793 -40.1926 -40.1702 -40.0414 -40.0412
   -18.1868 -18.1469 -17.9708 -17.9681 -11.2641 -11.2522 -10.8449 -10.8351
    -9.7590  -9.7551  -9.1529  -9.1351  -8.3058  -8.2412  -7.6549  -7.6441
    -6.4602  -6.3515  -3.6890  -3.6623  -3.1370  -3.0213  -2.5408  -2.5377
    -1.4518  -1.4249   1.1811   1.2066   2.8671   2.8845   2.9393   2.9454

          k = 0.5000 0.7698 0.0000 (  4025 PWs)   bands (ev):

   -66.6935 -66.6935 -42.5937 -42.5845 -40.2044 -40.1929 -40.0216 -40.0201
   -18.1642 -18.1409 -17.9817 -17.9802 -11.5927 -11.5810 -10.7827 -10.7772
    -9.9487  -9.9409  -9.0976  -9.0885  -7.7842  -7.7797  -7.4302  -7.3596
    -6.4623  -6.3613  -3.6433  -3.6041  -3.1669  -3.0713  -2.0422  -2.0141
    -1.7244  -1.7068   0.5716   0.5883   2.4970   2.5000   2.6400   2.6538

          k = 0.5000 0.8660 0.0000 (  4000 PWs)   bands (ev):

   -66.6935 -66.6935 -42.5900 -42.5900 -40.2059 -40.2059 -40.0120 -40.0120
   -18.1452 -18.1452 -17.9867 -17.9867 -11.7272 -11.7272 -10.7472 -10.7472
   -10.0057 -10.0057  -9.0790  -9.0790  -7.8260  -7.8260  -6.8608  -6.8608
    -6.5461  -6.5461  -3.6346  -3.6346  -3.1162  -3.1162  -2.0013  -2.0013
    -1.5665  -1.5665   0.3285   0.3285   2.0770   2.0770   2.4085   2.4085

          k = 0.5000 0.9623 0.0000 (  4025 PWs)   bands (ev):

   -66.6935 -66.6935 -42.5937 -42.5845 -40.2044 -40.1929 -40.0216 -40.0201
   -18.1642 -18.1409 -17.9817 -17.9802 -11.5927 -11.5810 -10.7827 -10.7772
    -9.9487  -9.9409  -9.0976  -9.0885  -7.7842  -7.7797  -7.4302  -7.3596
    -6.4623  -6.3613  -3.6433  -3.6041  -3.1669  -3.0713  -2.0422  -2.0141
    -1.7244  -1.7068   0.5716   0.5883   2.4970   2.5000   2.6400   2.6538

          k = 0.5000 1.0585 0.0000 (  4030 PWs)   bands (ev):

   -66.6935 -66.6935 -42.5954 -42.5793 -40.1926 -40.1702 -40.0414 -40.0412
   -18.1868 -18.1469 -17.9708 -17.9681 -11.2641 -11.2522 -10.8449 -10.8351
    -9.7590  -9.7551  -9.1529  -9.1351  -8.3058  -8.2412  -7.6549  -7.6441
    -6.4602  -6.3515  -3.6890  -3.6623  -3.1370  -3.0213  -2.5408  -2.5377
    -1.4518  -1.4249   1.1811   1.2066   2.8671   2.8845   2.9393   2.9454

          k = 0.5000 1.1547 0.0000 (  4048 PWs)   bands (ev):

   -66.6935 -66.6935 -42.5957 -42.5772 -40.1847 -40.1562 -40.0550 -40.0526
   -18.1969 -18.1510 -17.9652 -17.9621 -11.0615 -11.0573 -10.8737 -10.8621
    -9.5277  -9.5209  -9.1895  -9.1703  -8.8615  -8.8065  -7.5759  -7.5662
    -6.4856  -6.3757  -3.7262  -3.7130  -3.1070  -2.9933  -2.7928  -2.7834
    -1.2923  -1.2552   1.7011   1.7176   2.5433   2.6080   3.0141   3.0178

          k = 0.5000 1.2509 0.0000 (  4030 PWs)   bands (ev):

   -66.6935 -66.6935 -42.5954 -42.5793 -40.1926 -40.1702 -40.0414 -40.0412
   -18.1868 -18.1469 -17.9708 -17.9681 -11.2641 -11.2522 -10.8449 -10.8351
    -9.7590  -9.7551  -9.1529  -9.1351  -8.3058  -8.2412  -7.6549  -7.6441
    -6.4602  -6.3515  -3.6890  -3.6623  -3.1370  -3.0213  -2.5408  -2.5377
    -1.4518  -1.4249   1.1811   1.2066   2.8671   2.8845   2.9393   2.9454

          k = 0.5000 1.3472 0.0000 (  4025 PWs)   bands (ev):

   -66.6935 -66.6935 -42.5937 -42.5845 -40.2044 -40.1929 -40.0216 -40.0201
   -18.1642 -18.1409 -17.9817 -17.9802 -11.5927 -11.5810 -10.7827 -10.7772
    -9.9487  -9.9409  -9.0976  -9.0885  -7.7842  -7.7797  -7.4302  -7.3596
    -6.4623  -6.3613  -3.6433  -3.6041  -3.1669  -3.0713  -2.0422  -2.0141
    -1.7244  -1.7068   0.5716   0.5883   2.4970   2.5000   2.6400   2.6538

          k = 0.5833 0.3368 0.0000 (  4004 PWs)   bands (ev):

   -66.6962 -66.6962 -42.5815 -42.5815 -40.1897 -40.1897 -40.0108 -40.0108
   -18.3101 -18.3101 -18.0483 -18.0483 -11.5640 -11.5640 -10.5806 -10.5806
    -9.9269  -9.9269  -8.9964  -8.9964  -7.7640  -7.7640  -6.9610  -6.9610
    -6.7134  -6.7134  -3.6692  -3.6692  -3.2763  -3.2763  -2.1172  -2.1172
    -1.6171  -1.6171   0.8468   0.8468   2.0022   2.0022   2.1724   2.1724

          k = 0.5833 0.4330 0.0000 (  4017 PWs)   bands (ev):

   -66.6985 -66.6985 -42.5775 -42.5695 -40.1733 -40.1647 -40.0186 -40.0159
   -18.4594 -18.4409 -18.0968 -18.0955 -11.3208 -11.3204 -10.4360 -10.4285
    -9.8131  -9.8131  -9.0434  -9.0342  -7.6075  -7.5814  -7.5210  -7.4876
    -6.7000  -6.6098  -3.7422  -3.7061  -3.3510  -3.3404  -2.4393  -2.4047
    -1.6325  -1.6086   1.4565   1.4608   2.2112   2.2141   2.2401   2.2407

          k = 0.5833 0.5292 0.0000 (  4002 PWs)   bands (ev):

   -66.6998 -66.6998 -42.5747 -42.5621 -40.1550 -40.1411 -40.0330 -40.0291
   -18.5458 -18.5174 -18.1208 -18.1187 -11.0638 -11.0512 -10.3128 -10.2967
    -9.6485  -9.6381  -9.2393  -9.2189  -8.1866  -8.1142  -7.2862  -7.2648
    -6.7051  -6.6087  -3.8663  -3.7979  -3.3137  -3.3104  -2.8920  -2.8601
    -1.4749  -1.4638   1.9930   2.0240   2.4240   2.4243   2.4858   2.5256

          k = 0.5833 0.6255 0.0000 (  4002 PWs)   bands (ev):

   -66.6998 -66.6998 -42.5747 -42.5621 -40.1550 -40.1411 -40.0330 -40.0291
   -18.5458 -18.5174 -18.1208 -18.1187 -11.0638 -11.0512 -10.3128 -10.2967
    -9.6485  -9.6381  -9.2393  -9.2189  -8.1866  -8.1142  -7.2862  -7.2648
    -6.7051  -6.6087  -3.8663  -3.7979  -3.3137  -3.3104  -2.8920  -2.8601
    -1.4749  -1.4638   1.9930   2.0240   2.4240   2.4243   2.4858   2.5256

          k = 0.5833 0.7217 0.0000 (  4017 PWs)   bands (ev):

   -66.6985 -66.6985 -42.5775 -42.5695 -40.1733 -40.1647 -40.0186 -40.0159
   -18.4594 -18.4409 -18.0968 -18.0955 -11.3208 -11.3204 -10.4360 -10.4285
    -9.8131  -9.8131  -9.0434  -9.0342  -7.6075  -7.5814  -7.5210  -7.4876
    -6.7000  -6.6098  -3.7422  -3.7061  -3.3510  -3.3404  -2.4393  -2.4047
    -1.6325  -1.6086   1.4565   1.4608   2.2112   2.2141   2.2401   2.2407

          k = 0.5833 0.8179 0.0000 (  4004 PWs)   bands (ev):

   -66.6962 -66.6962 -42.5815 -42.5815 -40.1897 -40.1897 -40.0108 -40.0108
   -18.3101 -18.3101 -18.0483 -18.0483 -11.5640 -11.5640 -10.5806 -10.5806
    -9.9269  -9.9269  -8.9964  -8.9964  -7.7640  -7.7640  -6.9610  -6.9610
    -6.7134  -6.7134  -3.6692  -3.6692  -3.2763  -3.2763  -2.1172  -2.1172
    -1.6171  -1.6171   0.8468   0.8468   2.0022   2.0022   2.1724   2.1724

          k = 0.5833 0.9141 0.0000 (  4025 PWs)   bands (ev):

   -66.6935 -66.6935 -42.5937 -42.5845 -40.2044 -40.1929 -40.0216 -40.0201
   -18.1642 -18.1409 -17.9817 -17.9802 -11.5927 -11.5810 -10.7827 -10.7772
    -9.9487  -9.9409  -9.0976  -9.0885  -7.7842  -7.7797  -7.4302  -7.3596
    -6.4623  -6.3613  -3.6433  -3.6041  -3.1669  -3.0713  -2.0422  -2.0141
    -1.7244  -1.7068   0.5716   0.5883   2.4970   2.5000   2.6400   2.6538

          k = 0.5833 1.0104 0.0000 (  4050 PWs)   bands (ev):

   -66.6912 -66.6912 -42.6030 -42.5857 -40.2069 -40.1814 -40.0449 -40.0438
   -18.0451 -18.0003 -17.9120 -17.9094 -11.3445 -11.3185 -11.0382 -11.0307
    -9.8895  -9.8766  -9.0790  -9.0603  -8.2999  -8.2380  -7.8321  -7.8265
    -6.2856  -6.1695  -3.7622  -3.7141  -2.9146  -2.7649  -2.4015  -2.3769
    -1.4968  -1.4470   0.7030   0.7353   3.2419   3.3191   3.3751   3.3797

          k = 0.5833 1.1066 0.0000 (  4050 PWs)   bands (ev):

   -66.6898 -66.6898 -42.6078 -42.5858 -40.2028 -40.1634 -40.0716 -40.0631
   -17.9806 -17.9232 -17.8659 -17.8626 -11.2213 -11.2126 -10.9462 -10.9178
    -9.7535  -9.7450  -9.1597  -9.1157  -8.9912  -8.9513  -7.9123  -7.9072
    -6.1836  -6.0555  -3.9661  -3.9454  -2.7631  -2.7608  -2.6384  -2.5217
    -1.1769  -1.1070   1.1686   1.2222   2.3562   2.4250   3.5256   3.5326

          k = 0.5833 1.2028 0.0000 (  4050 PWs)   bands (ev):

   -66.6898 -66.6898 -42.6078 -42.5858 -40.2028 -40.1634 -40.0716 -40.0631
   -17.9806 -17.9232 -17.8659 -17.8626 -11.2213 -11.2126 -10.9462 -10.9178
    -9.7535  -9.7450  -9.1597  -9.1157  -8.9912  -8.9513  -7.9123  -7.9072
    -6.1836  -6.0555  -3.9661  -3.9454  -2.7631  -2.7608  -2.6384  -2.5217
    -1.1769  -1.1070   1.1686   1.2222   2.3562   2.4250   3.5256   3.5326

          k = 0.5833 1.2990 0.0000 (  4050 PWs)   bands (ev):

   -66.6912 -66.6912 -42.6030 -42.5857 -40.2069 -40.1814 -40.0449 -40.0438
   -18.0451 -18.0003 -17.9120 -17.9094 -11.3445 -11.3185 -11.0382 -11.0307
    -9.8895  -9.8766  -9.0790  -9.0603  -8.2999  -8.2380  -7.8321  -7.8265
    -6.2856  -6.1695  -3.7622  -3.7141  -2.9146  -2.7649  -2.4015  -2.3769
    -1.4968  -1.4470   0.7030   0.7353   3.2419   3.3191   3.3751   3.3797

          k = 0.5833 1.3953 0.0000 (  4025 PWs)   bands (ev):

   -66.6935 -66.6935 -42.5937 -42.5845 -40.2044 -40.1929 -40.0216 -40.0201
   -18.1642 -18.1409 -17.9817 -17.9802 -11.5927 -11.5810 -10.7827 -10.7772
    -9.9487  -9.9409  -9.0976  -9.0885  -7.7842  -7.7797  -7.4302  -7.3596
    -6.4623  -6.3613  -3.6433  -3.6041  -3.1669  -3.0713  -2.0422  -2.0141
    -1.7244  -1.7068   0.5716   0.5883   2.4970   2.5000   2.6400   2.6538

          k = 0.6667 0.3849 0.0000 (  4008 PWs)   bands (ev):

   -66.7035 -66.7035 -42.5587 -42.5587 -40.1464 -40.1464 -40.0051 -40.0051
   -18.7205 -18.7205 -18.2068 -18.2068 -11.1824 -11.1824 -10.1312 -10.1312
    -9.8225  -9.8225  -8.7567  -8.7567  -7.5724  -7.5724  -7.2471  -7.2471
    -6.8944  -6.8944  -3.6844  -3.6844  -3.5543  -3.5543  -2.4767  -2.4767
    -1.7830  -1.7830   1.6335   1.6335   1.9261   1.9261   2.0740   2.0740

          k = 0.6667 0.4811 0.0000 (  4006 PWs)   bands (ev):

   -66.7072 -66.7072 -42.5502 -42.5444 -40.1224 -40.1190 -40.0086 -40.0039
   -18.9159 -18.9039 -18.2799 -18.2790 -10.9780 -10.9647  -9.8457  -9.8350
    -9.7733  -9.7673  -8.8749  -8.8655  -7.6808  -7.6147  -7.2416  -7.2180
    -6.8026  -6.7366  -3.9008  -3.8389  -3.4799  -3.4536  -2.9276  -2.8784
    -1.7810  -1.7443   1.6111   1.6253   1.8887   1.8889   2.6690   2.6778

          k = 0.6667 0.5774 0.0000 (  4006 PWs)   bands (ev):

   -66.7085 -66.7085 -42.5469 -42.5390 -40.1097 -40.1060 -40.0141 -40.0066
   -18.9856 -18.9695 -18.3052 -18.3040 -10.8770 -10.8537  -9.7428  -9.7333
    -9.6181  -9.5882  -9.1331  -9.1044  -7.9063  -7.8306  -6.9867  -6.9517
    -6.7440  -6.6718  -4.0162  -3.9466  -3.4224  -3.4048  -3.2243  -3.1672
    -1.7186  -1.6796   1.6369   1.6526   1.8674   1.8686   3.0917   3.1069

          k = 0.6667 0.6736 0.0000 (  4006 PWs)   bands (ev):

   -66.7072 -66.7072 -42.5502 -42.5444 -40.1224 -40.1190 -40.0086 -40.0039
   -18.9159 -18.9039 -18.2799 -18.2790 -10.9780 -10.9647  -9.8457  -9.8350
    -9.7733  -9.7673  -8.8749  -8.8655  -7.6808  -7.6147  -7.2416  -7.2180
    -6.8026  -6.7366  -3.9008  -3.8389  -3.4799  -3.4536  -2.9276  -2.8784
    -1.7810  -1.7443   1.6111   1.6253   1.8887   1.8889   2.6690   2.6778

          k = 0.6667 0.7698 0.0000 (  4008 PWs)   bands (ev):

   -66.7035 -66.7035 -42.5587 -42.5587 -40.1464 -40.1464 -40.0051 -40.0051
   -18.7205 -18.7205 -18.2068 -18.2068 -11.1824 -11.1824 -10.1312 -10.1312
    -9.8225  -9.8225  -8.7567  -8.7567  -7.5724  -7.5724  -7.2471  -7.2471
    -6.8944  -6.8944  -3.6844  -3.6844  -3.5543  -3.5543  -2.4767  -2.4767
    -1.7830  -1.7830   1.6335   1.6335   1.9261   1.9261   2.0740   2.0740

          k = 0.6667 0.8660 0.0000 (  4017 PWs)   bands (ev):

   -66.6985 -66.6985 -42.5775 -42.5695 -40.1733 -40.1647 -40.0186 -40.0159
   -18.4594 -18.4409 -18.0968 -18.0955 -11.3208 -11.3204 -10.4360 -10.4285
    -9.8131  -9.8131  -9.0434  -9.0342  -7.6075  -7.5814  -7.5210  -7.4876
    -6.7000  -6.6098  -3.7422  -3.7061  -3.3510  -3.3404  -2.4393  -2.4047
    -1.6325  -1.6086   1.4565   1.4608   2.2112   2.2141   2.2401   2.2407

          k = 0.6667 0.9623 0.0000 (  4030 PWs)   bands (ev):

   -66.6935 -66.6935 -42.5954 -42.5793 -40.1926 -40.1702 -40.0414 -40.0412
[...]
   -10.0392  -9.9808  -9.4835  -9.4653  -8.8386  -8.7883  -8.1140  -8.0906
    -6.0030  -5.8551  -4.1924  -4.1894  -2.8638  -2.8321  -2.4108  -2.2693
    -1.0303  -0.9476   1.3524   1.4742   1.7718   1.7747   3.8061   3.8142

          k = 0.6667 1.2509 0.0000 (  4050 PWs)   bands (ev):

   -66.6898 -66.6898 -42.6078 -42.5858 -40.2028 -40.1634 -40.0716 -40.0631
   -17.9806 -17.9232 -17.8659 -17.8626 -11.2213 -11.2126 -10.9462 -10.9178
    -9.7535  -9.7450  -9.1597  -9.1157  -8.9912  -8.9513  -7.9123  -7.9072
    -6.1836  -6.0555  -3.9661  -3.9454  -2.7631  -2.7608  -2.6384  -2.5217
    -1.1769  -1.1070   1.1686   1.2222   2.3562   2.4250   3.5256   3.5326

          k = 0.6667 1.3472 0.0000 (  4030 PWs)   bands (ev):

   -66.6935 -66.6935 -42.5954 -42.5793 -40.1926 -40.1702 -40.0414 -40.0412
   -18.1868 -18.1469 -17.9708 -17.9681 -11.2641 -11.2522 -10.8449 -10.8351
    -9.7590  -9.7551  -9.1529  -9.1351  -8.3058  -8.2412  -7.6549  -7.6441
    -6.4602  -6.3515  -3.6890  -3.6623  -3.1370  -3.0213  -2.5408  -2.5377
    -1.4518  -1.4249   1.1811   1.2066   2.8671   2.8845   2.9393   2.9454

          k = 0.6667 1.4434 0.0000 (  4017 PWs)   bands (ev):

   -66.6985 -66.6985 -42.5775 -42.5695 -40.1733 -40.1647 -40.0186 -40.0159
   -18.4594 -18.4409 -18.0968 -18.0955 -11.3208 -11.3204 -10.4360 -10.4285
    -9.8131  -9.8131  -9.0434  -9.0342  -7.6075  -7.5814  -7.5210  -7.4876
    -6.7000  -6.6098  -3.7422  -3.7061  -3.3510  -3.3404  -2.4393  -2.4047
    -1.6325  -1.6086   1.4565   1.4608   2.2112   2.2141   2.2401   2.2407

          k = 0.7500 0.4330 0.0000 (  3986 PWs)   bands (ev):

   -66.7135 -66.7135 -42.5288 -42.5288 -40.0945 -40.0945 -39.9874 -39.9874
   -19.2130 -19.2130 -18.4038 -18.4038 -10.9324 -10.9324  -9.7299  -9.7299
    -9.5137  -9.5137  -8.3871  -8.3871  -7.6742  -7.6742  -7.2580  -7.2580
    -6.6547  -6.6547  -3.7478  -3.7478  -3.5268  -3.5268  -2.9649  -2.9649
    -2.0880  -2.0880   1.2313   1.2313   1.5347   1.5347   2.8096   2.8096

          k = 0.7500 0.5292 0.0000 (  3991 PWs)   bands (ev):

   -66.7172 -66.7172 -42.5198 -42.5165 -40.0780 -40.0771 -39.9812 -39.9755
   -19.3822 -19.3759 -18.4710 -18.4705 -10.9489 -10.9389  -9.5979  -9.5941
    -9.1851  -9.1753  -8.5018  -8.4972  -7.9085  -7.8691  -6.9447  -6.9155
    -6.4918  -6.4662  -3.8246  -3.7978  -3.4318  -3.4224  -3.3286  -3.2620
    -2.1453  -2.0986   1.1171   1.1237   1.3580   1.3584   2.9153   2.9166

          k = 0.7500 0.6255 0.0000 (  3991 PWs)   bands (ev):

   -66.7172 -66.7172 -42.5198 -42.5165 -40.0780 -40.0771 -39.9812 -39.9755
   -19.3822 -19.3759 -18.4710 -18.4705 -10.9489 -10.9389  -9.5979  -9.5941
    -9.1851  -9.1753  -8.5018  -8.4972  -7.9085  -7.8691  -6.9447  -6.9155
    -6.4918  -6.4662  -3.8246  -3.7978  -3.4318  -3.4224  -3.3286  -3.2620
    -2.1453  -2.0986   1.1171   1.1237   1.3580   1.3584   2.9153   2.9166

          k = 0.7500 0.7217 0.0000 (  3986 PWs)   bands (ev):

   -66.7135 -66.7135 -42.5288 -42.5288 -40.0945 -40.0945 -39.9874 -39.9874
   -19.2130 -19.2130 -18.4038 -18.4038 -10.9324 -10.9324  -9.7299  -9.7299
    -9.5137  -9.5137  -8.3871  -8.3871  -7.6742  -7.6742  -7.2580  -7.2580
    -6.6547  -6.6547  -3.7478  -3.7478  -3.5268  -3.5268  -2.9649  -2.9649
    -2.0880  -2.0880   1.2313   1.2313   1.5347   1.5347   2.8096   2.8096

          k = 0.7500 0.8179 0.0000 (  4006 PWs)   bands (ev):

   -66.7072 -66.7072 -42.5502 -42.5444 -40.1224 -40.1190 -40.0086 -40.0039
   -18.9159 -18.9039 -18.2799 -18.2790 -10.9780 -10.9647  -9.8457  -9.8350
    -9.7733  -9.7673  -8.8749  -8.8655  -7.6808  -7.6147  -7.2416  -7.2180
    -6.8026  -6.7366  -3.9008  -3.8389  -3.4799  -3.4536  -2.9276  -2.8784
    -1.7810  -1.7443   1.6111   1.6253   1.8887   1.8889   2.6690   2.6778

          k = 0.7500 0.9141 0.0000 (  4002 PWs)   bands (ev):

   -66.6998 -66.6998 -42.5747 -42.5621 -40.1550 -40.1411 -40.0330 -40.0291
   -18.5458 -18.5174 -18.1208 -18.1187 -11.0638 -11.0512 -10.3128 -10.2967
    -9.6485  -9.6381  -9.2393  -9.2189  -8.1866  -8.1142  -7.2862  -7.2648
    -6.7051  -6.6087  -3.8663  -3.7979  -3.3137  -3.3104  -2.8920  -2.8601
    -1.4749  -1.4638   1.9930   2.0240   2.4240   2.4243   2.4858   2.5256

          k = 0.7500 1.0104 0.0000 (  4048 PWs)   bands (ev):

   -66.6935 -66.6935 -42.5957 -42.5772 -40.1847 -40.1562 -40.0550 -40.0526
   -18.1969 -18.1510 -17.9652 -17.9621 -11.0615 -11.0573 -10.8737 -10.8621
    -9.5277  -9.5209  -9.1895  -9.1703  -8.8615  -8.8065  -7.5759  -7.5662
    -6.4856  -6.3757  -3.7262  -3.7130  -3.1070  -2.9933  -2.7928  -2.7834
    -1.2923  -1.2552   1.7011   1.7176   2.5433   2.6080   3.0141   3.0178

          k = 0.7500 1.1066 0.0000 (  4050 PWs)   bands (ev):

   -66.6898 -66.6898 -42.6078 -42.5858 -40.2028 -40.1634 -40.0716 -40.0631
   -17.9806 -17.9232 -17.8659 -17.8626 -11.2213 -11.2126 -10.9462 -10.9178
    -9.7535  -9.7450  -9.1597  -9.1157  -8.9912  -8.9513  -7.9123  -7.9072
    -6.1836  -6.0555  -3.9661  -3.9454  -2.7631  -2.7608  -2.6384  -2.5217
    -1.1769  -1.1070   1.1686   1.2222   2.3562   2.4250   3.5256   3.5326

          k = 0.7500 1.2028 0.0000 (  4050 PWs)   bands (ev):

   -66.6898 -66.6898 -42.6078 -42.5858 -40.2028 -40.1634 -40.0716 -40.0631
   -17.9806 -17.9232 -17.8659 -17.8626 -11.2213 -11.2126 -10.9462 -10.9178
    -9.7535  -9.7450  -9.1597  -9.1157  -8.9912  -8.9513  -7.9123  -7.9072
    -6.1836  -6.0555  -3.9661  -3.9454  -2.7631  -2.7608  -2.6384  -2.5217
    -1.1769  -1.1070   1.1686   1.2222   2.3562   2.4250   3.5256   3.5326

          k = 0.7500 1.2990 0.0000 (  4048 PWs)   bands (ev):

   -66.6935 -66.6935 -42.5957 -42.5772 -40.1847 -40.1562 -40.0550 -40.0526
   -18.1969 -18.1510 -17.9652 -17.9621 -11.0615 -11.0573 -10.8737 -10.8621
    -9.5277  -9.5209  -9.1895  -9.1703  -8.8615  -8.8065  -7.5759  -7.5662
    -6.4856  -6.3757  -3.7262  -3.7130  -3.1070  -2.9933  -2.7928  -2.7834
    -1.2923  -1.2552   1.7011   1.7176   2.5433   2.6080   3.0141   3.0178

          k = 0.7500 1.3953 0.0000 (  4002 PWs)   bands (ev):

   -66.6998 -66.6998 -42.5747 -42.5621 -40.1550 -40.1411 -40.0330 -40.0291
   -18.5458 -18.5174 -18.1208 -18.1187 -11.0638 -11.0512 -10.3128 -10.2967
    -9.6485  -9.6381  -9.2393  -9.2189  -8.1866  -8.1142  -7.2862  -7.2648
    -6.7051  -6.6087  -3.8663  -3.7979  -3.3137  -3.3104  -2.8920  -2.8601
    -1.4749  -1.4638   1.9930   2.0240   2.4240   2.4243   2.4858   2.5256

          k = 0.7500 1.4915 0.0000 (  4006 PWs)   bands (ev):

   -66.7072 -66.7072 -42.5502 -42.5444 -40.1224 -40.1190 -40.0086 -40.0039
   -18.9159 -18.9039 -18.2799 -18.2790 -10.9780 -10.9647  -9.8457  -9.8350
    -9.7733  -9.7673  -8.8749  -8.8655  -7.6808  -7.6147  -7.2416  -7.2180
    -6.8026  -6.7366  -3.9008  -3.8389  -3.4799  -3.4536  -2.9276  -2.8784
    -1.7810  -1.7443   1.6111   1.6253   1.8887   1.8889   2.6690   2.6778

          k = 0.8333 0.4811 0.0000 (  3983 PWs)   bands (ev):

   -66.7235 -66.7235 -42.5004 -42.5004 -40.0614 -40.0614 -39.9479 -39.9479
   -19.6515 -19.6515 -18.5829 -18.5829 -11.1459 -11.1459  -9.2768  -9.2768
    -8.8516  -8.8516  -8.0999  -8.0999  -7.9443  -7.9443  -7.0043  -7.0043
    -6.2296  -6.2296  -3.6121  -3.6121  -3.3007  -3.3007  -3.2510  -3.2510
    -2.5088  -2.5088   0.7588   0.7588   1.0202   1.0202   2.1509   2.1509

          k = 0.8333 0.5774 0.0000 (  3968 PWs)   bands (ev):

   -66.7258 -66.7258 -42.4945 -42.4933 -40.0568 -40.0560 -39.9369 -39.9343
   -19.7484 -19.7463 -18.6224 -18.6222 -11.2336 -11.2309  -9.1256  -9.1140
    -8.6350  -8.6344  -8.2158  -8.1902  -7.9450  -7.9387  -6.9079  -6.8825
    -6.1437  -6.1386  -3.5167  -3.5039  -3.4079  -3.3545  -3.2068  -3.1789
    -2.6088  -2.5597   0.6471   0.6504   0.9042   0.9043   1.8594   1.8626

          k = 0.8333 0.6736 0.0000 (  3983 PWs)   bands (ev):

   -66.7235 -66.7235 -42.5004 -42.5004 -40.0614 -40.0614 -39.9479 -39.9479
   -19.6515 -19.6515 -18.5829 -18.5829 -11.1459 -11.1459  -9.2768  -9.2768
    -8.8516  -8.8516  -8.0999  -8.0999  -7.9443  -7.9443  -7.0043  -7.0043
    -6.2296  -6.2296  -3.6121  -3.6121  -3.3007  -3.3007  -3.2510  -3.2510
    -2.5088  -2.5088   0.7588   0.7588   1.0202   1.0202   2.1509   2.1509

          k = 0.8333 0.7698 0.0000 (  3991 PWs)   bands (ev):

   -66.7172 -66.7172 -42.5198 -42.5165 -40.0780 -40.0771 -39.9812 -39.9755
   -19.3822 -19.3759 -18.4710 -18.4705 -10.9489 -10.9389  -9.5979  -9.5941
    -9.1851  -9.1753  -8.5018  -8.4972  -7.9085  -7.8691  -6.9447  -6.9155
    -6.4918  -6.4662  -3.8246  -3.7978  -3.4318  -3.4224  -3.3286  -3.2620
    -2.1453  -2.0986   1.1171   1.1237   1.3580   1.3584   2.9153   2.9166

          k = 0.8333 0.8660 0.0000 (  4006 PWs)   bands (ev):

   -66.7085 -66.7085 -42.5469 -42.5390 -40.1097 -40.1060 -40.0141 -40.0066
   -18.9856 -18.9695 -18.3052 -18.3040 -10.8770 -10.8537  -9.7428  -9.7333
    -9.6181  -9.5882  -9.1331  -9.1044  -7.9063  -7.8306  -6.9867  -6.9517
    -6.7440  -6.6718  -4.0162  -3.9466  -3.4224  -3.4048  -3.2243  -3.1672
    -1.7186  -1.6796   1.6369   1.6526   1.8674   1.8686   3.0917   3.1069

          k = 0.8333 0.9623 0.0000 (  4002 PWs)   bands (ev):

   -66.6998 -66.6998 -42.5747 -42.5621 -40.1550 -40.1411 -40.0330 -40.0291
   -18.5458 -18.5174 -18.1208 -18.1187 -11.0638 -11.0512 -10.3128 -10.2967
    -9.6485  -9.6381  -9.2393  -9.2189  -8.1866  -8.1142  -7.2862  -7.2648
    -6.7051  -6.6087  -3.8663  -3.7979  -3.3137  -3.3104  -2.8920  -2.8601
    -1.4749  -1.4638   1.9930   2.0240   2.4240   2.4243   2.4858   2.5256

          k = 0.8333 1.0585 0.0000 (  4030 PWs)   bands (ev):

   -66.6935 -66.6935 -42.5954 -42.5793 -40.1926 -40.1702 -40.0414 -40.0412
   -18.1868 -18.1469 -17.9708 -17.9681 -11.2641 -11.2522 -10.8449 -10.8351
    -9.7590  -9.7551  -9.1529  -9.1351  -8.3058  -8.2412  -7.6549  -7.6441
    -6.4602  -6.3515  -3.6890  -3.6623  -3.1370  -3.0213  -2.5408  -2.5377
    -1.4518  -1.4249   1.1811   1.2066   2.8671   2.8845   2.9393   2.9454

          k = 0.8333 1.1547 0.0000 (  4050 PWs)   bands (ev):

   -66.6912 -66.6912 -42.6030 -42.5857 -40.2069 -40.1814 -40.0449 -40.0438
   -18.0451 -18.0003 -17.9120 -17.9094 -11.3445 -11.3185 -11.0382 -11.0307
    -9.8895  -9.8766  -9.0790  -9.0603  -8.2999  -8.2380  -7.8321  -7.8265
    -6.2856  -6.1695  -3.7622  -3.7141  -2.9146  -2.7649  -2.4015  -2.3769
    -1.4968  -1.4470   0.7030   0.7353   3.2419   3.3191   3.3751   3.3797

          k = 0.8333 1.2509 0.0000 (  4030 PWs)   bands (ev):

   -66.6935 -66.6935 -42.5954 -42.5793 -40.1926 -40.1702 -40.0414 -40.0412
   -18.1868 -18.1469 -17.9708 -17.9681 -11.2641 -11.2522 -10.8449 -10.8351
    -9.7590  -9.7551  -9.1529  -9.1351  -8.3058  -8.2412  -7.6549  -7.6441
    -6.4602  -6.3515  -3.6890  -3.6623  -3.1370  -3.0213  -2.5408  -2.5377
    -1.4518  -1.4249   1.1811   1.2066   2.8671   2.8845   2.9393   2.9454

          k = 0.8333 1.3472 0.0000 (  4002 PWs)   bands (ev):

   -66.6998 -66.6998 -42.5747 -42.5621 -40.1550 -40.1411 -40.0330 -40.0291
   -18.5458 -18.5174 -18.1208 -18.1187 -11.0638 -11.0512 -10.3128 -10.2967
    -9.6485  -9.6381  -9.2393  -9.2189  -8.1866  -8.1142  -7.2862  -7.2648
    -6.7051  -6.6087  -3.8663  -3.7979  -3.3137  -3.3104  -2.8920  -2.8601
    -1.4749  -1.4638   1.9930   2.0240   2.4240   2.4243   2.4858   2.5256

          k = 0.8333 1.4434 0.0000 (  4006 PWs)   bands (ev):

   -66.7085 -66.7085 -42.5469 -42.5390 -40.1097 -40.1060 -40.0141 -40.0066
   -18.9856 -18.9695 -18.3052 -18.3040 -10.8770 -10.8537  -9.7428  -9.7333
    -9.6181  -9.5882  -9.1331  -9.1044  -7.9063  -7.8306  -6.9867  -6.9517
    -6.7440  -6.6718  -4.0162  -3.9466  -3.4224  -3.4048  -3.2243  -3.1672
    -1.7186  -1.6796   1.6369   1.6526   1.8674   1.8686   3.0917   3.1069

          k = 0.8333 1.5396 0.0000 (  3991 PWs)   bands (ev):

   -66.7172 -66.7172 -42.5198 -42.5165 -40.0780 -40.0771 -39.9812 -39.9755
   -19.3822 -19.3759 -18.4710 -18.4705 -10.9489 -10.9389  -9.5979  -9.5941
    -9.1851  -9.1753  -8.5018  -8.4972  -7.9085  -7.8691  -6.9447  -6.9155
    -6.4918  -6.4662  -3.8246  -3.7978  -3.4318  -3.4224  -3.3286  -3.2620
    -2.1453  -2.0986   1.1171   1.1237   1.3580   1.3584   2.9153   2.9166

          k = 0.9167 0.5292 0.0000 (  3957 PWs)   bands (ev):

   -66.7308 -66.7308 -42.4804 -42.4804 -40.0490 -40.0490 -39.9052 -39.9052
   -19.9476 -19.9476 -18.7048 -18.7048 -11.4454 -11.4454  -8.7475  -8.7475
    -8.4028  -8.4028  -8.1999  -8.1999  -7.5555  -7.5555  -7.0816  -7.0816
    -6.0032  -6.0032  -3.2499  -3.2499  -3.1548  -3.1548  -2.9954  -2.9954
    -2.9081  -2.9081   0.2942   0.2942   0.6559   0.6559   1.1320   1.1320

          k = 0.9167 0.6255 0.0000 (  3957 PWs)   bands (ev):

   -66.7308 -66.7308 -42.4804 -42.4804 -40.0490 -40.0490 -39.9052 -39.9052
   -19.9476 -19.9476 -18.7048 -18.7048 -11.4454 -11.4454  -8.7475  -8.7475
    -8.4028  -8.4028  -8.1999  -8.1999  -7.5555  -7.5555  -7.0816  -7.0816
    -6.0032  -6.0032  -3.2499  -3.2499  -3.1548  -3.1548  -2.9954  -2.9954
    -2.9081  -2.9081   0.2942   0.2942   0.6559   0.6559   1.1320   1.1320

          k = 0.9167 0.7217 0.0000 (  3968 PWs)   bands (ev):

   -66.7258 -66.7258 -42.4945 -42.4933 -40.0568 -40.0560 -39.9369 -39.9343
   -19.7484 -19.7463 -18.6224 -18.6222 -11.2336 -11.2309  -9.1256  -9.1140
    -8.6350  -8.6344  -8.2158  -8.1902  -7.9450  -7.9387  -6.9079  -6.8825
    -6.1437  -6.1386  -3.5167  -3.5039  -3.4079  -3.3545  -3.2068  -3.1789
    -2.6088  -2.5597   0.6471   0.6504   0.9042   0.9043   1.8594   1.8626

          k = 0.9167 0.8179 0.0000 (  3991 PWs)   bands (ev):

   -66.7172 -66.7172 -42.5198 -42.5165 -40.0780 -40.0771 -39.9812 -39.9755
   -19.3822 -19.3759 -18.4710 -18.4705 -10.9489 -10.9389  -9.5979  -9.5941
    -9.1851  -9.1753  -8.5018  -8.4972  -7.9085  -7.8691  -6.9447  -6.9155
    -6.4918  -6.4662  -3.8246  -3.7978  -3.4318  -3.4224  -3.3286  -3.2620
    -2.1453  -2.0986   1.1171   1.1237   1.3580   1.3584   2.9153   2.9166

          k = 0.9167 0.9141 0.0000 (  4006 PWs)   bands (ev):

   -66.7072 -66.7072 -42.5502 -42.5444 -40.1224 -40.1190 -40.0086 -40.0039
   -18.9159 -18.9039 -18.2799 -18.2790 -10.9780 -10.9647  -9.8457  -9.8350
    -9.7733  -9.7673  -8.8749  -8.8655  -7.6808  -7.6147  -7.2416  -7.2180
    -6.8026  -6.7366  -3.9008  -3.8389  -3.4799  -3.4536  -2.9276  -2.8784
    -1.7810  -1.7443   1.6111   1.6253   1.8887   1.8889   2.6690   2.6778

          k = 0.9167 1.0104 0.0000 (  4017 PWs)   bands (ev):

   -66.6985 -66.6985 -42.5775 -42.5695 -40.1733 -40.1647 -40.0186 -40.0159
   -18.4594 -18.4409 -18.0968 -18.0955 -11.3208 -11.3204 -10.4360 -10.4285
    -9.8131  -9.8131  -9.0434  -9.0342  -7.6075  -7.5814  -7.5210  -7.4876
    -6.7000  -6.6098  -3.7422  -3.7061  -3.3510  -3.3404  -2.4393  -2.4047
    -1.6325  -1.6086   1.4565   1.4608   2.2112   2.2141   2.2401   2.2407

          k = 0.9167 1.1066 0.0000 (  4025 PWs)   bands (ev):

   -66.6935 -66.6935 -42.5937 -42.5845 -40.2044 -40.1929 -40.0216 -40.0201
   -18.1642 -18.1409 -17.9817 -17.9802 -11.5927 -11.5810 -10.7827 -10.7772
    -9.9487  -9.9409  -9.0976  -9.0885  -7.7842  -7.7797  -7.4302  -7.3596
    -6.4623  -6.3613  -3.6433  -3.6041  -3.1669  -3.0713  -2.0422  -2.0141
    -1.7244  -1.7068   0.5716   0.5883   2.4970   2.5000   2.6400   2.6538

          k = 0.9167 1.2028 0.0000 (  4025 PWs)   bands (ev):

   -66.6935 -66.6935 -42.5937 -42.5845 -40.2044 -40.1929 -40.0216 -40.0201
   -18.1642 -18.1409 -17.9817 -17.9802 -11.5927 -11.5810 -10.7827 -10.7772
    -9.9487  -9.9409  -9.0976  -9.0885  -7.7842  -7.7797  -7.4302  -7.3596
    -6.4623  -6.3613  -3.6433  -3.6041  -3.1669  -3.0713  -2.0422  -2.0141
    -1.7244  -1.7068   0.5716   0.5883   2.4970   2.5000   2.6400   2.6538

          k = 0.9167 1.2990 0.0000 (  4017 PWs)   bands (ev):

   -66.6985 -66.6985 -42.5775 -42.5695 -40.1733 -40.1647 -40.0186 -40.0159
   -18.4594 -18.4409 -18.0968 -18.0955 -11.3208 -11.3204 -10.4360 -10.4285
    -9.8131  -9.8131  -9.0434  -9.0342  -7.6075  -7.5814  -7.5210  -7.4876
    -6.7000  -6.6098  -3.7422  -3.7061  -3.3510  -3.3404  -2.4393  -2.4047
    -1.6325  -1.6086   1.4565   1.4608   2.2112   2.2141   2.2401   2.2407

          k = 0.9167 1.3953 0.0000 (  4006 PWs)   bands (ev):

   -66.7072 -66.7072 -42.5502 -42.5444 -40.1224 -40.1190 -40.0086 -40.0039
   -18.9159 -18.9039 -18.2799 -18.2790 -10.9780 -10.9647  -9.8457  -9.8350
    -9.7733  -9.7673  -8.8749  -8.8655  -7.6808  -7.6147  -7.2416  -7.2180
    -6.8026  -6.7366  -3.9008  -3.8389  -3.4799  -3.4536  -2.9276  -2.8784
    -1.7810  -1.7443   1.6111   1.6253   1.8887   1.8889   2.6690   2.6778

          k = 0.9167 1.4915 0.0000 (  3991 PWs)   bands (ev):

   -66.7172 -66.7172 -42.5198 -42.5165 -40.0780 -40.0771 -39.9812 -39.9755
   -19.3822 -19.3759 -18.4710 -18.4705 -10.9489 -10.9389  -9.5979  -9.5941
    -9.1851  -9.1753  -8.5018  -8.4972  -7.9085  -7.8691  -6.9447  -6.9155
    -6.4918  -6.4662  -3.8246  -3.7978  -3.4318  -3.4224  -3.3286  -3.2620
    -2.1453  -2.0986   1.1171   1.1237   1.3580   1.3584   2.9153   2.9166

          k = 0.9167 1.5877 0.0000 (  3968 PWs)   bands (ev):

   -66.7258 -66.7258 -42.4945 -42.4933 -40.0568 -40.0560 -39.9369 -39.9343
   -19.7484 -19.7463 -18.6224 -18.6222 -11.2336 -11.2309  -9.1256  -9.1140
    -8.6350  -8.6344  -8.2158  -8.1902  -7.9450  -7.9387  -6.9079  -6.8825
    -6.1437  -6.1386  -3.5167  -3.5039  -3.4079  -3.3545  -3.2068  -3.1789
    -2.6088  -2.5597   0.6471   0.6504   0.9042   0.9043   1.8594   1.8626

     Writing output data file MoS2.save/
 
     init_run     :      0.11s CPU      0.16s WALL (       1 calls)
     electrons    :      9.41s CPU      9.71s WALL (       1 calls)

     Called by init_run:
     wfcinit      :      0.00s CPU      0.00s WALL (       1 calls)
     wfcinit:atom :      0.00s CPU      0.00s WALL (      15 calls)
     wfcinit:wfcr :      0.23s CPU      0.28s WALL (      15 calls)
     potinit      :      0.08s CPU      0.12s WALL (       1 calls)
     hinit0       :      0.02s CPU      0.03s WALL (       1 calls)

     Called by electrons:
     c_bands      :      9.40s CPU      9.71s WALL (       1 calls)
     v_of_rho     :      0.00s CPU      0.00s WALL (       1 calls)
     v_h          :      0.00s CPU      0.00s WALL (       1 calls)
     v_xc         :      0.00s CPU      0.00s WALL (       1 calls)

     Called by c_bands:
     init_us_2    :      0.00s CPU      0.00s WALL (      15 calls)
     cegterg      :      7.08s CPU      7.32s WALL (      30 calls)

     Called by sum_band:

     Called by *egterg:
     h_psi        :      3.83s CPU      4.07s WALL (     547 calls)
     g_psi        :      0.03s CPU      0.03s WALL (     502 calls)
     cdiaghg      :      2.62s CPU      2.66s WALL (     517 calls)
     cegterg:over :      0.36s CPU      0.37s WALL (     502 calls)
     cegterg:upda :      0.27s CPU      0.27s WALL (     502 calls)
     cegterg:last :      0.12s CPU      0.12s WALL (      90 calls)
     cdiaghg:chol :      0.16s CPU      0.16s WALL (     517 calls)
     cdiaghg:inve :      0.08s CPU      0.09s WALL (     517 calls)
     cdiaghg:para :      0.19s CPU      0.19s WALL (    1034 calls)

     Called by h_psi:
     h_psi:pot    :      3.81s CPU      4.05s WALL (     547 calls)
     h_psi:calbec :      0.13s CPU      0.15s WALL (     547 calls)
     vloc_psi     :      3.55s CPU      3.76s WALL (     547 calls)
     add_vuspsi   :      0.13s CPU      0.14s WALL (     547 calls)

     General routines
     calbec       :      0.13s CPU      0.14s WALL (     547 calls)
     fft          :      0.00s CPU      0.02s WALL (      13 calls)
     fftw         :      3.33s CPU      3.53s WALL (   45308 calls)
 
     Parallel routines
     fft_scatt_xy :      0.30s CPU      0.32s WALL (   45321 calls)
     fft_scatt_yz :      2.05s CPU      2.18s WALL (   45321 calls)
 
     PWSCF        :     41.73s CPU   1m 3.74s WALL

 
   This run was terminated on:  13: 3:17   3May2021            

=------------------------------------------------------------------------------=
   JOB DONE.
=------------------------------------------------------------------------------=
