
     Program PWSCF v.6.4.1 starts on  3May2021 at 13: 0:49 

     This program is part of the open-source Quantum ESPRESSO suite
     for quantum simulation of materials; please cite
         "P. Giannozzi et al., J. Phys.:Condens. Matter 21 395502 (2009);
         "P. Giannozzi et al., J. Phys.:Condens. Matter 29 465901 (2017);
          URL http://www.quantum-espresso.org", 
     in publications or presentations arising from this work. More details at
     http://www.quantum-espresso.org/quote

     Parallel version (MPI & OpenMP), running on     320 processor cores
     Number of MPI processes:               320
     Threads/MPI process:                     1

     MPI processes distributed on    10 nodes
     K-points division:     npool     =      10
     R & G space division:  proc/nbgrp/npool/nimage =      32
     Waiting for input...
     Reading input from standard input

     Current dimensions of program PWSCF are:
     Max number of different atomic species (ntypx) = 10
     Max number of k-points (npk) =  40000
     Max angular momentum in pseudopotentials (lmaxx) =  3

     Atomic positions and unit cell read from directory:
     ./MoS2.save/
 
     Message from routine readpp:
     file ./MoS2.save/Mo_FR.UPF not found
     Message from routine readpp:
     file ./MoS2.save/S_FR.UPF not found

     Subspace diagonalization in iterative solution of the eigenvalue problem:
     one sub-group per band group will be used
     scalapack distributed-memory algorithm (size of sub-group:  4*  4 procs)

     Message from routine setup:
     DEPRECATED: symmetry with ibrav=0, use correct ibrav instead
 
     Parallelization info
     --------------------
     sticks:   dense  smooth     PW     G-vecs:    dense   smooth      PW
     Min          12      12      3                  980      980     157
     Max          13      13      4                 1004     1004     184
     Sum         385     385    121                31921    31921    5539
 


     bravais-lattice index     =            0
     lattice parameter (alat)  =       5.9867  a.u.
     unit-cell volume          =     938.4712 (a.u.)^3
     number of atoms/cell      =            3
     number of atomic types    =            2
     number of electrons       =        26.00
     number of Kohn-Sham states=           40
     kinetic-energy cutoff     =      40.0000  Ry
     charge density cutoff     =     160.0000  Ry
     Exchange-correlation      = PBE ( 1  4  3  4 0 0)
     Non magnetic calculation with spin-orbit


     celldm(1)=   5.986676  celldm(2)=   0.000000  celldm(3)=   0.000000
     celldm(4)=   0.000000  celldm(5)=   0.000000  celldm(6)=   0.000000

     crystal axes: (cart. coord. in units of alat)
               a(1) = (   1.000000   0.000000   0.000000 )  
               a(2) = (  -0.500000   0.866025   0.000000 )  
               a(3) = (   0.000000   0.000000   5.050485 )  

     reciprocal axes: (cart. coord. in units 2 pi/alat)
               b(1) = (  1.000000  0.577350  0.000000 )  
               b(2) = (  0.000000  1.154701  0.000000 )  
               b(3) = (  0.000000  0.000000  0.198001 )  


     PseudoPot. # 1 for Mo read from file:
     ../../../pseudo/oncvpsp/Mo_FR.UPF
     MD5 check sum: 091442f9a55d305e44af61b3fb26c716
     Pseudo is Norm-conserving, Zval = 14.0
     Generated using ONCVPSP code by D. R. Hamann
     Using radial grid of 1526 points, 10 beta functions with: 
                l(1) =   0
                l(2) =   0
                l(3) =   1
                l(4) =   1
                l(5) =   1
                l(6) =   1
                l(7) =   2
                l(8) =   2
                l(9) =   2
               l(10) =   2

     PseudoPot. # 2 for S  read from file:
     ../../../pseudo/oncvpsp/S_FR.UPF
     MD5 check sum: 1ec1d62f6016a84edfc3cbeb70a0ad55
     Pseudo is Norm-conserving, Zval =  6.0
     Generated using ONCVPSP code by D. R. Hamann
     Using radial grid of 1146 points,  6 beta functions with: 
                l(1) =   0
                l(2) =   0
                l(3) =   1
                l(4) =   1
                l(5) =   1
                l(6) =   1

     atomic species   valence    mass     pseudopotential
        Mo            14.00     1.00000     Mo( 1.00)
        S              6.00     1.00000     S ( 1.00)

     12 Sym. Ops. (no inversion) found


                                    s                        frac. trans.

      isym =  1     identity                                     

 cryst.   s( 1) = (     1          0          0      )
                  (     0          1          0      )
                  (     0          0          1      )

 cart.    s( 1) = (  1.0000000  0.0000000  0.0000000 )
                  (  0.0000000  1.0000000  0.0000000 )
                  (  0.0000000  0.0000000  1.0000000 )


      isym =  2     180 deg rotation - cart. axis [0,1,0]        

 cryst.   s( 2) = (    -1          0          0      )
                  (     1          1          0      )
                  (     0          0         -1      )

 cart.    s( 2) = ( -1.0000000  0.0000000  0.0000000 )
                  (  0.0000000  1.0000000  0.0000000 )
                  (  0.0000000  0.0000000 -1.0000000 )


      isym =  3     120 deg rotation - cryst. axis [0,0,1]       

 cryst.   s( 3) = (     0          1          0      )
                  (    -1         -1          0      )
                  (     0          0          1      )

 cart.    s( 3) = ( -0.5000000 -0.8660254  0.0000000 )
                  (  0.8660254 -0.5000000  0.0000000 )
                  (  0.0000000  0.0000000  1.0000000 )


      isym =  4     120 deg rotation - cryst. axis [0,0,-1]      

 cryst.   s( 4) = (    -1         -1          0      )
                  (     1          0          0      )
                  (     0          0          1      )

 cart.    s( 4) = ( -0.5000000  0.8660254  0.0000000 )
                  ( -0.8660254 -0.5000000  0.0000000 )
                  (  0.0000000  0.0000000  1.0000000 )


      isym =  5     180 deg rotation - cryst. axis [1,-1,0]      

 cryst.   s( 5) = (     0         -1          0      )
                  (    -1          0          0      )
                  (     0          0         -1      )

 cart.    s( 5) = (  0.5000000 -0.8660254  0.0000000 )
                  ( -0.8660254 -0.5000000  0.0000000 )
                  (  0.0000000  0.0000000 -1.0000000 )


      isym =  6     180 deg rotation - cryst. axis [2,1,0]       

 cryst.   s( 6) = (     1          1          0      )
                  (     0         -1          0      )
                  (     0          0         -1      )

 cart.    s( 6) = (  0.5000000  0.8660254  0.0000000 )
                  (  0.8660254 -0.5000000  0.0000000 )
                  (  0.0000000  0.0000000 -1.0000000 )


      isym =  7     inv. 180 deg rotation - cart. axis [0,0,1]   

 cryst.   s( 7) = (     1          0          0      )
                  (     0          1          0      )
                  (     0          0         -1      )

 cart.    s( 7) = (  1.0000000  0.0000000  0.0000000 )
                  (  0.0000000  1.0000000  0.0000000 )
                  (  0.0000000  0.0000000 -1.0000000 )


      isym =  8     inv. 180 deg rotation - cart. axis [1,0,0]   

 cryst.   s( 8) = (    -1          0          0      )
                  (     1          1          0      )
                  (     0          0          1      )

 cart.    s( 8) = ( -1.0000000  0.0000000  0.0000000 )
                  (  0.0000000  1.0000000  0.0000000 )
                  (  0.0000000  0.0000000  1.0000000 )


      isym =  9     inv.  60 deg rotation - cryst. axis [0,0,1]  

 cryst.   s( 9) = (    -1         -1          0      )
                  (     1          0          0      )
                  (     0          0         -1      )

 cart.    s( 9) = ( -0.5000000  0.8660254  0.0000000 )
                  ( -0.8660254 -0.5000000  0.0000000 )
                  (  0.0000000  0.0000000 -1.0000000 )


      isym = 10     inv.  60 deg rotation - cryst. axis [0,0,-1] 

 cryst.   s(10) = (     0          1          0      )
                  (    -1         -1          0      )
                  (     0          0         -1      )

 cart.    s(10) = ( -0.5000000 -0.8660254  0.0000000 )
                  (  0.8660254 -0.5000000  0.0000000 )
                  (  0.0000000  0.0000000 -1.0000000 )


      isym = 11     inv. 180 deg rotation - cryst. axis [0,1,0]  

 cryst.   s(11) = (     1          1          0      )
                  (     0         -1          0      )
                  (     0          0          1      )

 cart.    s(11) = (  0.5000000  0.8660254  0.0000000 )
                  (  0.8660254 -0.5000000  0.0000000 )
                  (  0.0000000  0.0000000  1.0000000 )


      isym = 12     inv. 180 deg rotation - cryst. axis [1,1,0]  

 cryst.   s(12) = (     0         -1          0      )
                  (    -1          0          0      )
                  (     0          0          1      )

 cart.    s(12) = (  0.5000000 -0.8660254  0.0000000 )
                  ( -0.8660254 -0.5000000  0.0000000 )
                  (  0.0000000  0.0000000  1.0000000 )


   Cartesian axes

     site n.     atom                  positions (alat units)
         1           Mo  tau(   1) = (  -0.0000000   0.5773503   0.0000000  )
         2           S   tau(   2) = (   0.5000000   0.2886751  -0.4944526  )
         3           S   tau(   3) = (   0.5000000   0.2886751   0.4944526  )

   Crystallographic axes

     site n.     atom                  positions (cryst. coord.)
         1           Mo  tau(   1) = (  0.3333333  0.6666667  0.0000000  )
         2           S   tau(   2) = (  0.6666667  0.3333333 -0.0979020  )
         3           S   tau(   3) = (  0.6666667  0.3333333  0.0979020  )

     number of k points=   181
                       cart. coord. in units 2pi/alat
        k(    1) = (   0.0000000   0.0000000   0.0000000), wk =   0.0055249
        k(    2) = (   0.0055556   0.0096225   0.0000000), wk =   0.0055249
        k(    3) = (   0.0111111   0.0192450   0.0000000), wk =   0.0055249
        k(    4) = (   0.0166667   0.0288675   0.0000000), wk =   0.0055249
        k(    5) = (   0.0222222   0.0384900   0.0000000), wk =   0.0055249
        k(    6) = (   0.0277778   0.0481125   0.0000000), wk =   0.0055249
        k(    7) = (   0.0333333   0.0577350   0.0000000), wk =   0.0055249
        k(    8) = (   0.0388889   0.0673575   0.0000000), wk =   0.0055249
        k(    9) = (   0.0444444   0.0769800   0.0000000), wk =   0.0055249
        k(   10) = (   0.0500000   0.0866025   0.0000000), wk =   0.0055249
        k(   11) = (   0.0555556   0.0962250   0.0000000), wk =   0.0055249
        k(   12) = (   0.0611111   0.1058475   0.0000000), wk =   0.0055249
        k(   13) = (   0.0666667   0.1154701   0.0000000), wk =   0.0055249
        k(   14) = (   0.0722222   0.1250926   0.0000000), wk =   0.0055249
        k(   15) = (   0.0777778   0.1347151   0.0000000), wk =   0.0055249
        k(   16) = (   0.0833333   0.1443376   0.0000000), wk =   0.0055249
        k(   17) = (   0.0888889   0.1539601   0.0000000), wk =   0.0055249
        k(   18) = (   0.0944444   0.1635826   0.0000000), wk =   0.0055249
        k(   19) = (   0.1000000   0.1732051   0.0000000), wk =   0.0055249
        k(   20) = (   0.1055556   0.1828276   0.0000000), wk =   0.0055249
        k(   21) = (   0.1111111   0.1924501   0.0000000), wk =   0.0055249
        k(   22) = (   0.1166667   0.2020726   0.0000000), wk =   0.0055249
        k(   23) = (   0.1222222   0.2116951   0.0000000), wk =   0.0055249
        k(   24) = (   0.1277778   0.2213176   0.0000000), wk =   0.0055249
        k(   25) = (   0.1333333   0.2309401   0.0000000), wk =   0.0055249
        k(   26) = (   0.1388889   0.2405626   0.0000000), wk =   0.0055249
        k(   27) = (   0.1444444   0.2501851   0.0000000), wk =   0.0055249
        k(   28) = (   0.1500000   0.2598076   0.0000000), wk =   0.0055249
        k(   29) = (   0.1555556   0.2694301   0.0000000), wk =   0.0055249
        k(   30) = (   0.1611111   0.2790526   0.0000000), wk =   0.0055249
        k(   31) = (   0.1666667   0.2886751   0.0000000), wk =   0.0055249
        k(   32) = (   0.1722222   0.2982976   0.0000000), wk =   0.0055249
        k(   33) = (   0.1777778   0.3079201   0.0000000), wk =   0.0055249
        k(   34) = (   0.1833333   0.3175426   0.0000000), wk =   0.0055249
        k(   35) = (   0.1888889   0.3271651   0.0000000), wk =   0.0055249
        k(   36) = (   0.1944444   0.3367877   0.0000000), wk =   0.0055249
        k(   37) = (   0.2000000   0.3464102   0.0000000), wk =   0.0055249
        k(   38) = (   0.2055556   0.3560327   0.0000000), wk =   0.0055249
        k(   39) = (   0.2111111   0.3656552   0.0000000), wk =   0.0055249
        k(   40) = (   0.2166667   0.3752777   0.0000000), wk =   0.0055249
        k(   41) = (   0.2222222   0.3849002   0.0000000), wk =   0.0055249
        k(   42) = (   0.2277778   0.3945227   0.0000000), wk =   0.0055249
        k(   43) = (   0.2333333   0.4041452   0.0000000), wk =   0.0055249
        k(   44) = (   0.2388889   0.4137677   0.0000000), wk =   0.0055249
        k(   45) = (   0.2444444   0.4233902   0.0000000), wk =   0.0055249
        k(   46) = (   0.2500000   0.4330127   0.0000000), wk =   0.0055249
        k(   47) = (   0.2555556   0.4426352   0.0000000), wk =   0.0055249
        k(   48) = (   0.2611111   0.4522577   0.0000000), wk =   0.0055249
        k(   49) = (   0.2666667   0.4618802   0.0000000), wk =   0.0055249
        k(   50) = (   0.2722222   0.4715027   0.0000000), wk =   0.0055249
        k(   51) = (   0.2777778   0.4811252   0.0000000), wk =   0.0055249
        k(   52) = (   0.2833333   0.4907477   0.0000000), wk =   0.0055249
        k(   53) = (   0.2888889   0.5003702   0.0000000), wk =   0.0055249
        k(   54) = (   0.2944444   0.5099927   0.0000000), wk =   0.0055249
        k(   55) = (   0.3000000   0.5196152   0.0000000), wk =   0.0055249
        k(   56) = (   0.3055556   0.5292377   0.0000000), wk =   0.0055249
        k(   57) = (   0.3111111   0.5388602   0.0000000), wk =   0.0055249
        k(   58) = (   0.3166667   0.5484828   0.0000000), wk =   0.0055249
        k(   59) = (   0.3222222   0.5581053   0.0000000), wk =   0.0055249
        k(   60) = (   0.3277778   0.5677278   0.0000000), wk =   0.0055249
        k(   61) = (   0.3333333   0.5773503   0.0000000), wk =   0.0055249
        k(   62) = (   0.3277778   0.5773503   0.0000000), wk =   0.0055249
        k(   63) = (   0.3222222   0.5773503   0.0000000), wk =   0.0055249
        k(   64) = (   0.3166667   0.5773503   0.0000000), wk =   0.0055249
        k(   65) = (   0.3111111   0.5773503   0.0000000), wk =   0.0055249
        k(   66) = (   0.3055556   0.5773503   0.0000000), wk =   0.0055249
        k(   67) = (   0.3000000   0.5773503   0.0000000), wk =   0.0055249
        k(   68) = (   0.2944444   0.5773503   0.0000000), wk =   0.0055249
        k(   69) = (   0.2888889   0.5773503   0.0000000), wk =   0.0055249
        k(   70) = (   0.2833333   0.5773503   0.0000000), wk =   0.0055249
        k(   71) = (   0.2777778   0.5773503   0.0000000), wk =   0.0055249
        k(   72) = (   0.2722222   0.5773503   0.0000000), wk =   0.0055249
        k(   73) = (   0.2666667   0.5773503   0.0000000), wk =   0.0055249
        k(   74) = (   0.2611111   0.5773503   0.0000000), wk =   0.0055249
        k(   75) = (   0.2555556   0.5773503   0.0000000), wk =   0.0055249
        k(   76) = (   0.2500000   0.5773503   0.0000000), wk =   0.0055249
        k(   77) = (   0.2444444   0.5773503   0.0000000), wk =   0.0055249
        k(   78) = (   0.2388889   0.5773503   0.0000000), wk =   0.0055249
        k(   79) = (   0.2333333   0.5773503   0.0000000), wk =   0.0055249
        k(   80) = (   0.2277778   0.5773503   0.0000000), wk =   0.0055249
        k(   81) = (   0.2222222   0.5773503   0.0000000), wk =   0.0055249
        k(   82) = (   0.2166667   0.5773503   0.0000000), wk =   0.0055249
        k(   83) = (   0.2111111   0.5773503   0.0000000), wk =   0.0055249
        k(   84) = (   0.2055556   0.5773503   0.0000000), wk =   0.0055249
        k(   85) = (   0.2000000   0.5773503   0.0000000), wk =   0.0055249
        k(   86) = (   0.1944444   0.5773503   0.0000000), wk =   0.0055249
        k(   87) = (   0.1888889   0.5773503   0.0000000), wk =   0.0055249
        k(   88) = (   0.1833333   0.5773503   0.0000000), wk =   0.0055249
        k(   89) = (   0.1777778   0.5773503   0.0000000), wk =   0.0055249
        k(   90) = (   0.1722222   0.5773503   0.0000000), wk =   0.0055249
        k(   91) = (   0.1666667   0.5773503   0.0000000), wk =   0.0055249
        k(   92) = (   0.1611111   0.5773503   0.0000000), wk =   0.0055249
        k(   93) = (   0.1555556   0.5773503   0.0000000), wk =   0.0055249
        k(   94) = (   0.1500000   0.5773503   0.0000000), wk =   0.0055249
        k(   95) = (   0.1444444   0.5773503   0.0000000), wk =   0.0055249
        k(   96) = (   0.1388889   0.5773503   0.0000000), wk =   0.0055249
        k(   97) = (   0.1333333   0.5773503   0.0000000), wk =   0.0055249
        k(   98) = (   0.1277778   0.5773503   0.0000000), wk =   0.0055249
        k(   99) = (   0.1222222   0.5773503   0.0000000), wk =   0.0055249
        k(  100) = (   0.1166667   0.5773503   0.0000000), wk =   0.0055249
        k(  101) = (   0.1111111   0.5773503   0.0000000), wk =   0.0055249
        k(  102) = (   0.1055556   0.5773503   0.0000000), wk =   0.0055249
        k(  103) = (   0.1000000   0.5773503   0.0000000), wk =   0.0055249
        k(  104) = (   0.0944444   0.5773503   0.0000000), wk =   0.0055249
        k(  105) = (   0.0888889   0.5773503   0.0000000), wk =   0.0055249
        k(  106) = (   0.0833333   0.5773503   0.0000000), wk =   0.0055249
        k(  107) = (   0.0777778   0.5773503   0.0000000), wk =   0.0055249
        k(  108) = (   0.0722222   0.5773503   0.0000000), wk =   0.0055249
        k(  109) = (   0.0666667   0.5773503   0.0000000), wk =   0.0055249
        k(  110) = (   0.0611111   0.5773503   0.0000000), wk =   0.0055249
        k(  111) = (   0.0555556   0.5773503   0.0000000), wk =   0.0055249
        k(  112) = (   0.0500000   0.5773503   0.0000000), wk =   0.0055249
        k(  113) = (   0.0444444   0.5773503   0.0000000), wk =   0.0055249
        k(  114) = (   0.0388889   0.5773503   0.0000000), wk =   0.0055249
        k(  115) = (   0.0333333   0.5773503   0.0000000), wk =   0.0055249
        k(  116) = (   0.0277778   0.5773503   0.0000000), wk =   0.0055249
        k(  117) = (   0.0222222   0.5773503   0.0000000), wk =   0.0055249
        k(  118) = (   0.0166667   0.5773503   0.0000000), wk =   0.0055249
        k(  119) = (   0.0111111   0.5773503   0.0000000), wk =   0.0055249
        k(  120) = (   0.0055556   0.5773503   0.0000000), wk =   0.0055249
        k(  121) = (   0.0000000   0.5773503   0.0000000), wk =   0.0055249
        k(  122) = (   0.0000000   0.5677278   0.0000000), wk =   0.0055249
        k(  123) = (   0.0000000   0.5581053   0.0000000), wk =   0.0055249
        k(  124) = (   0.0000000   0.5484828   0.0000000), wk =   0.0055249
        k(  125) = (   0.0000000   0.5388603   0.0000000), wk =   0.0055249
        k(  126) = (   0.0000000   0.5292377   0.0000000), wk =   0.0055249
        k(  127) = (   0.0000000   0.5196152   0.0000000), wk =   0.0055249
        k(  128) = (   0.0000000   0.5099927   0.0000000), wk =   0.0055249
        k(  129) = (   0.0000000   0.5003702   0.0000000), wk =   0.0055249
        k(  130) = (   0.0000000   0.4907477   0.0000000), wk =   0.0055249
        k(  131) = (   0.0000000   0.4811252   0.0000000), wk =   0.0055249
        k(  132) = (   0.0000000   0.4715027   0.0000000), wk =   0.0055249
        k(  133) = (   0.0000000   0.4618802   0.0000000), wk =   0.0055249
        k(  134) = (   0.0000000   0.4522577   0.0000000), wk =   0.0055249
        k(  135) = (   0.0000000   0.4426352   0.0000000), wk =   0.0055249
        k(  136) = (   0.0000000   0.4330127   0.0000000), wk =   0.0055249
        k(  137) = (   0.0000000   0.4233902   0.0000000), wk =   0.0055249
        k(  138) = (   0.0000000   0.4137677   0.0000000), wk =   0.0055249
        k(  139) = (   0.0000000   0.4041452   0.0000000), wk =   0.0055249
        k(  140) = (   0.0000000   0.3945227   0.0000000), wk =   0.0055249
        k(  141) = (   0.0000000   0.3849002   0.0000000), wk =   0.0055249
        k(  142) = (   0.0000000   0.3752777   0.0000000), wk =   0.0055249
        k(  143) = (   0.0000000   0.3656552   0.0000000), wk =   0.0055249
        k(  144) = (   0.0000000   0.3560327   0.0000000), wk =   0.0055249
        k(  145) = (   0.0000000   0.3464102   0.0000000), wk =   0.0055249
        k(  146) = (   0.0000000   0.3367877   0.0000000), wk =   0.0055249
        k(  147) = (   0.0000000   0.3271652   0.0000000), wk =   0.0055249
        k(  148) = (   0.0000000   0.3175426   0.0000000), wk =   0.0055249
        k(  149) = (   0.0000000   0.3079201   0.0000000), wk =   0.0055249
        k(  150) = (   0.0000000   0.2982976   0.0000000), wk =   0.0055249
        k(  151) = (   0.0000000   0.2886751   0.0000000), wk =   0.0055249
        k(  152) = (   0.0000000   0.2790526   0.0000000), wk =   0.0055249
        k(  153) = (   0.0000000   0.2694301   0.0000000), wk =   0.0055249
        k(  154) = (   0.0000000   0.2598076   0.0000000), wk =   0.0055249
        k(  155) = (   0.0000000   0.2501851   0.0000000), wk =   0.0055249
        k(  156) = (   0.0000000   0.2405626   0.0000000), wk =   0.0055249
        k(  157) = (   0.0000000   0.2309401   0.0000000), wk =   0.0055249
        k(  158) = (   0.0000000   0.2213176   0.0000000), wk =   0.0055249
        k(  159) = (   0.0000000   0.2116951   0.0000000), wk =   0.0055249
        k(  160) = (   0.0000000   0.2020726   0.0000000), wk =   0.0055249
        k(  161) = (   0.0000000   0.1924501   0.0000000), wk =   0.0055249
        k(  162) = (   0.0000000   0.1828276   0.0000000), wk =   0.0055249
        k(  163) = (   0.0000000   0.1732051   0.0000000), wk =   0.0055249
        k(  164) = (   0.0000000   0.1635826   0.0000000), wk =   0.0055249
        k(  165) = (   0.0000000   0.1539601   0.0000000), wk =   0.0055249
        k(  166) = (   0.0000000   0.1443376   0.0000000), wk =   0.0055249
        k(  167) = (   0.0000000   0.1347151   0.0000000), wk =   0.0055249
        k(  168) = (   0.0000000   0.1250926   0.0000000), wk =   0.0055249
        k(  169) = (   0.0000000   0.1154701   0.0000000), wk =   0.0055249
        k(  170) = (   0.0000000   0.1058475   0.0000000), wk =   0.0055249
        k(  171) = (   0.0000000   0.0962250   0.0000000), wk =   0.0055249
        k(  172) = (   0.0000000   0.0866025   0.0000000), wk =   0.0055249
        k(  173) = (   0.0000000   0.0769800   0.0000000), wk =   0.0055249
        k(  174) = (   0.0000000   0.0673575   0.0000000), wk =   0.0055249
        k(  175) = (   0.0000000   0.0577350   0.0000000), wk =   0.0055249
        k(  176) = (   0.0000000   0.0481125   0.0000000), wk =   0.0055249
        k(  177) = (   0.0000000   0.0384900   0.0000000), wk =   0.0055249
        k(  178) = (   0.0000000   0.0288675   0.0000000), wk =   0.0055249
        k(  179) = (   0.0000000   0.0192450   0.0000000), wk =   0.0055249
        k(  180) = (   0.0000000   0.0096225   0.0000000), wk =   0.0055249
        k(  181) = (   0.0000000   0.0000000   0.0000000), wk =   0.0055249

                       cryst. coord.
        k(    1) = (   0.0000000   0.0000000   0.0000000), wk =   0.0055249
        k(    2) = (   0.0055556   0.0055556   0.0000000), wk =   0.0055249
        k(    3) = (   0.0111111   0.0111111   0.0000000), wk =   0.0055249
        k(    4) = (   0.0166667   0.0166667   0.0000000), wk =   0.0055249
        k(    5) = (   0.0222222   0.0222222   0.0000000), wk =   0.0055249
        k(    6) = (   0.0277778   0.0277778   0.0000000), wk =   0.0055249
        k(    7) = (   0.0333333   0.0333333   0.0000000), wk =   0.0055249
        k(    8) = (   0.0388889   0.0388889   0.0000000), wk =   0.0055249
        k(    9) = (   0.0444444   0.0444444   0.0000000), wk =   0.0055249
        k(   10) = (   0.0500000   0.0500000   0.0000000), wk =   0.0055249
        k(   11) = (   0.0555556   0.0555556   0.0000000), wk =   0.0055249
        k(   12) = (   0.0611111   0.0611111   0.0000000), wk =   0.0055249
        k(   13) = (   0.0666667   0.0666667   0.0000000), wk =   0.0055249
        k(   14) = (   0.0722222   0.0722222   0.0000000), wk =   0.0055249
        k(   15) = (   0.0777778   0.0777778   0.0000000), wk =   0.0055249
        k(   16) = (   0.0833333   0.0833333   0.0000000), wk =   0.0055249
        k(   17) = (   0.0888889   0.0888889   0.0000000), wk =   0.0055249
        k(   18) = (   0.0944444   0.0944444   0.0000000), wk =   0.0055249
        k(   19) = (   0.1000000   0.1000000   0.0000000), wk =   0.0055249
        k(   20) = (   0.1055556   0.1055556   0.0000000), wk =   0.0055249
        k(   21) = (   0.1111111   0.1111111   0.0000000), wk =   0.0055249
        k(   22) = (   0.1166667   0.1166667   0.0000000), wk =   0.0055249
        k(   23) = (   0.1222222   0.1222222   0.0000000), wk =   0.0055249
        k(   24) = (   0.1277778   0.1277778   0.0000000), wk =   0.0055249
        k(   25) = (   0.1333333   0.1333333   0.0000000), wk =   0.0055249
        k(   26) = (   0.1388889   0.1388889   0.0000000), wk =   0.0055249
        k(   27) = (   0.1444444   0.1444444   0.0000000), wk =   0.0055249
        k(   28) = (   0.1500000   0.1500000   0.0000000), wk =   0.0055249
        k(   29) = (   0.1555556   0.1555556   0.0000000), wk =   0.0055249
        k(   30) = (   0.1611111   0.1611111   0.0000000), wk =   0.0055249
        k(   31) = (   0.1666667   0.1666667   0.0000000), wk =   0.0055249
        k(   32) = (   0.1722222   0.1722222   0.0000000), wk =   0.0055249
        k(   33) = (   0.1777778   0.1777778   0.0000000), wk =   0.0055249
        k(   34) = (   0.1833333   0.1833333   0.0000000), wk =   0.0055249
        k(   35) = (   0.1888889   0.1888889   0.0000000), wk =   0.0055249
        k(   36) = (   0.1944444   0.1944444   0.0000000), wk =   0.0055249
        k(   37) = (   0.2000000   0.2000000   0.0000000), wk =   0.0055249
        k(   38) = (   0.2055556   0.2055556   0.0000000), wk =   0.0055249
        k(   39) = (   0.2111111   0.2111111   0.0000000), wk =   0.0055249
        k(   40) = (   0.2166667   0.2166667   0.0000000), wk =   0.0055249
        k(   41) = (   0.2222222   0.2222222   0.0000000), wk =   0.0055249
        k(   42) = (   0.2277778   0.2277778   0.0000000), wk =   0.0055249
        k(   43) = (   0.2333333   0.2333333   0.0000000), wk =   0.0055249
        k(   44) = (   0.2388889   0.2388889   0.0000000), wk =   0.0055249
        k(   45) = (   0.2444444   0.2444444   0.0000000), wk =   0.0055249
        k(   46) = (   0.2500000   0.2500000   0.0000000), wk =   0.0055249
        k(   47) = (   0.2555556   0.2555556   0.0000000), wk =   0.0055249
        k(   48) = (   0.2611111   0.2611111   0.0000000), wk =   0.0055249
        k(   49) = (   0.2666667   0.2666667   0.0000000), wk =   0.0055249
        k(   50) = (   0.2722222   0.2722222   0.0000000), wk =   0.0055249
        k(   51) = (   0.2777778   0.2777778   0.0000000), wk =   0.0055249
        k(   52) = (   0.2833333   0.2833333   0.0000000), wk =   0.0055249
        k(   53) = (   0.2888889   0.2888889   0.0000000), wk =   0.0055249
        k(   54) = (   0.2944444   0.2944444   0.0000000), wk =   0.0055249
        k(   55) = (   0.3000000   0.3000000   0.0000000), wk =   0.0055249
        k(   56) = (   0.3055556   0.3055556   0.0000000), wk =   0.0055249
        k(   57) = (   0.3111111   0.3111111   0.0000000), wk =   0.0055249
        k(   58) = (   0.3166667   0.3166667   0.0000000), wk =   0.0055249
        k(   59) = (   0.3222222   0.3222222   0.0000000), wk =   0.0055249
        k(   60) = (   0.3277778   0.3277778   0.0000000), wk =   0.0055249
        k(   61) = (   0.3333333   0.3333333   0.0000000), wk =   0.0055249
        k(   62) = (   0.3277778   0.3361111   0.0000000), wk =   0.0055249
        k(   63) = (   0.3222222   0.3388889   0.0000000), wk =   0.0055249
        k(   64) = (   0.3166667   0.3416667   0.0000000), wk =   0.0055249
        k(   65) = (   0.3111111   0.3444444   0.0000000), wk =   0.0055249
        k(   66) = (   0.3055556   0.3472222   0.0000000), wk =   0.0055249
        k(   67) = (   0.3000000   0.3500000   0.0000000), wk =   0.0055249
        k(   68) = (   0.2944444   0.3527778   0.0000000), wk =   0.0055249
        k(   69) = (   0.2888889   0.3555556   0.0000000), wk =   0.0055249
        k(   70) = (   0.2833333   0.3583333   0.0000000), wk =   0.0055249
        k(   71) = (   0.2777778   0.3611111   0.0000000), wk =   0.0055249
        k(   72) = (   0.2722222   0.3638889   0.0000000), wk =   0.0055249
        k(   73) = (   0.2666667   0.3666667   0.0000000), wk =   0.0055249
        k(   74) = (   0.2611111   0.3694444   0.0000000), wk =   0.0055249
        k(   75) = (   0.2555556   0.3722222   0.0000000), wk =   0.0055249
        k(   76) = (   0.2500000   0.3750000   0.0000000), wk =   0.0055249
        k(   77) = (   0.2444444   0.3777778   0.0000000), wk =   0.0055249
        k(   78) = (   0.2388889   0.3805556   0.0000000), wk =   0.0055249
        k(   79) = (   0.2333333   0.3833333   0.0000000), wk =   0.0055249
        k(   80) = (   0.2277778   0.3861111   0.0000000), wk =   0.0055249
        k(   81) = (   0.2222222   0.3888889   0.0000000), wk =   0.0055249
        k(   82) = (   0.2166667   0.3916667   0.0000000), wk =   0.0055249
        k(   83) = (   0.2111111   0.3944444   0.0000000), wk =   0.0055249
        k(   84) = (   0.2055556   0.3972222   0.0000000), wk =   0.0055249
        k(   85) = (   0.2000000   0.4000000   0.0000000), wk =   0.0055249
        k(   86) = (   0.1944444   0.4027778   0.0000000), wk =   0.0055249
        k(   87) = (   0.1888889   0.4055556   0.0000000), wk =   0.0055249
        k(   88) = (   0.1833333   0.4083333   0.0000000), wk =   0.0055249
        k(   89) = (   0.1777778   0.4111111   0.0000000), wk =   0.0055249
        k(   90) = (   0.1722222   0.4138889   0.0000000), wk =   0.0055249
        k(   91) = (   0.1666667   0.4166667   0.0000000), wk =   0.0055249
        k(   92) = (   0.1611111   0.4194444   0.0000000), wk =   0.0055249
        k(   93) = (   0.1555556   0.4222222   0.0000000), wk =   0.0055249
        k(   94) = (   0.1500000   0.4250000   0.0000000), wk =   0.0055249
        k(   95) = (   0.1444444   0.4277778   0.0000000), wk =   0.0055249
        k(   96) = (   0.1388889   0.4305556   0.0000000), wk =   0.0055249
        k(   97) = (   0.1333333   0.4333333   0.0000000), wk =   0.0055249
        k(   98) = (   0.1277778   0.4361111   0.0000000), wk =   0.0055249
        k(   99) = (   0.1222222   0.4388889   0.0000000), wk =   0.0055249
        k(  100) = (   0.1166667   0.4416667   0.0000000), wk =   0.0055249
        k(  101) = (   0.1111111   0.4444444   0.0000000), wk =   0.0055249
        k(  102) = (   0.1055556   0.4472222   0.0000000), wk =   0.0055249
        k(  103) = (   0.1000000   0.4500000   0.0000000), wk =   0.0055249
        k(  104) = (   0.0944444   0.4527778   0.0000000), wk =   0.0055249
        k(  105) = (   0.0888889   0.4555556   0.0000000), wk =   0.0055249
        k(  106) = (   0.0833333   0.4583333   0.0000000), wk =   0.0055249
        k(  107) = (   0.0777778   0.4611111   0.0000000), wk =   0.0055249
        k(  108) = (   0.0722222   0.4638889   0.0000000), wk =   0.0055249
        k(  109) = (   0.0666667   0.4666667   0.0000000), wk =   0.0055249
        k(  110) = (   0.0611111   0.4694444   0.0000000), wk =   0.0055249
        k(  111) = (   0.0555556   0.4722222   0.0000000), wk =   0.0055249
        k(  112) = (   0.0500000   0.4750000   0.0000000), wk =   0.0055249
        k(  113) = (   0.0444444   0.4777778   0.0000000), wk =   0.0055249
        k(  114) = (   0.0388889   0.4805556   0.0000000), wk =   0.0055249
        k(  115) = (   0.0333333   0.4833333   0.0000000), wk =   0.0055249
        k(  116) = (   0.0277778   0.4861111   0.0000000), wk =   0.0055249
        k(  117) = (   0.0222222   0.4888889   0.0000000), wk =   0.0055249
        k(  118) = (   0.0166667   0.4916667   0.0000000), wk =   0.0055249
        k(  119) = (   0.0111111   0.4944444   0.0000000), wk =   0.0055249
        k(  120) = (   0.0055556   0.4972222   0.0000000), wk =   0.0055249
        k(  121) = (   0.0000000   0.5000000   0.0000000), wk =   0.0055249
        k(  122) = (   0.0000000   0.4916667   0.0000000), wk =   0.0055249
        k(  123) = (   0.0000000   0.4833333   0.0000000), wk =   0.0055249
        k(  124) = (   0.0000000   0.4750000   0.0000000), wk =   0.0055249
        k(  125) = (   0.0000000   0.4666667   0.0000000), wk =   0.0055249
        k(  126) = (   0.0000000   0.4583333   0.0000000), wk =   0.0055249
        k(  127) = (   0.0000000   0.4500000   0.0000000), wk =   0.0055249
        k(  128) = (   0.0000000   0.4416667   0.0000000), wk =   0.0055249
        k(  129) = (   0.0000000   0.4333333   0.0000000), wk =   0.0055249
        k(  130) = (   0.0000000   0.4250000   0.0000000), wk =   0.0055249
        k(  131) = (   0.0000000   0.4166667   0.0000000), wk =   0.0055249
        k(  132) = (   0.0000000   0.4083333   0.0000000), wk =   0.0055249
        k(  133) = (   0.0000000   0.4000000   0.0000000), wk =   0.0055249
        k(  134) = (   0.0000000   0.3916667   0.0000000), wk =   0.0055249
        k(  135) = (   0.0000000   0.3833333   0.0000000), wk =   0.0055249
        k(  136) = (   0.0000000   0.3750000   0.0000000), wk =   0.0055249
        k(  137) = (   0.0000000   0.3666667   0.0000000), wk =   0.0055249
        k(  138) = (   0.0000000   0.3583333   0.0000000), wk =   0.0055249
        k(  139) = (   0.0000000   0.3500000   0.0000000), wk =   0.0055249
        k(  140) = (   0.0000000   0.3416667   0.0000000), wk =   0.0055249
        k(  141) = (   0.0000000   0.3333333   0.0000000), wk =   0.0055249
        k(  142) = (   0.0000000   0.3250000   0.0000000), wk =   0.0055249
        k(  143) = (   0.0000000   0.3166667   0.0000000), wk =   0.0055249
        k(  144) = (   0.0000000   0.3083333   0.0000000), wk =   0.0055249
        k(  145) = (   0.0000000   0.3000000   0.0000000), wk =   0.0055249
        k(  146) = (   0.0000000   0.2916667   0.0000000), wk =   0.0055249
        k(  147) = (   0.0000000   0.2833333   0.0000000), wk =   0.0055249
        k(  148) = (   0.0000000   0.2750000   0.0000000), wk =   0.0055249
        k(  149) = (   0.0000000   0.2666667   0.0000000), wk =   0.0055249
        k(  150) = (   0.0000000   0.2583333   0.0000000), wk =   0.0055249
        k(  151) = (   0.0000000   0.2500000   0.0000000), wk =   0.0055249
        k(  152) = (   0.0000000   0.2416667   0.0000000), wk =   0.0055249
        k(  153) = (   0.0000000   0.2333333   0.0000000), wk =   0.0055249
        k(  154) = (   0.0000000   0.2250000   0.0000000), wk =   0.0055249
        k(  155) = (   0.0000000   0.2166667   0.0000000), wk =   0.0055249
        k(  156) = (   0.0000000   0.2083333   0.0000000), wk =   0.0055249
        k(  157) = (   0.0000000   0.2000000   0.0000000), wk =   0.0055249
        k(  158) = (   0.0000000   0.1916667   0.0000000), wk =   0.0055249
        k(  159) = (   0.0000000   0.1833333   0.0000000), wk =   0.0055249
        k(  160) = (   0.0000000   0.1750000   0.0000000), wk =   0.0055249
        k(  161) = (   0.0000000   0.1666667   0.0000000), wk =   0.0055249
        k(  162) = (   0.0000000   0.1583333   0.0000000), wk =   0.0055249
        k(  163) = (   0.0000000   0.1500000   0.0000000), wk =   0.0055249
        k(  164) = (   0.0000000   0.1416667   0.0000000), wk =   0.0055249
        k(  165) = (   0.0000000   0.1333333   0.0000000), wk =   0.0055249
        k(  166) = (   0.0000000   0.1250000   0.0000000), wk =   0.0055249
        k(  167) = (   0.0000000   0.1166667   0.0000000), wk =   0.0055249
        k(  168) = (   0.0000000   0.1083333   0.0000000), wk =   0.0055249
        k(  169) = (   0.0000000   0.1000000   0.0000000), wk =   0.0055249
        k(  170) = (   0.0000000   0.0916667   0.0000000), wk =   0.0055249
        k(  171) = (   0.0000000   0.0833333   0.0000000), wk =   0.0055249
        k(  172) = (   0.0000000   0.0750000   0.0000000), wk =   0.0055249
        k(  173) = (   0.0000000   0.0666667   0.0000000), wk =   0.0055249
        k(  174) = (   0.0000000   0.0583333   0.0000000), wk =   0.0055249
        k(  175) = (   0.0000000   0.0500000   0.0000000), wk =   0.0055249
        k(  176) = (   0.0000000   0.0416667   0.0000000), wk =   0.0055249
        k(  177) = (   0.0000000   0.0333333   0.0000000), wk =   0.0055249
        k(  178) = (   0.0000000   0.0250000   0.0000000), wk =   0.0055249
        k(  179) = (   0.0000000   0.0166667   0.0000000), wk =   0.0055249
        k(  180) = (   0.0000000   0.0083333   0.0000000), wk =   0.0055249
        k(  181) = (   0.0000000   0.0000000   0.0000000), wk =   0.0055249

     Dense  grid:    31921 G-vectors     FFT dimensions: (  25,  25, 125)

     Dynamical RAM for                 wfc:       0.15 MB

     Dynamical RAM for     wfc (w. buffer):       3.05 MB

     Dynamical RAM for           str. fact:       0.03 MB

     Dynamical RAM for           local pot:       0.00 MB

     Dynamical RAM for          nlocal pot:       0.12 MB

     Dynamical RAM for                qrad:       5.07 MB

     Dynamical RAM for          rho,v,vnew:       0.41 MB

     Dynamical RAM for           G-vectors:       0.06 MB

     Dynamical RAM for          h,s,v(r/c):       0.07 MB

     Dynamical RAM for          <psi|beta>:       0.08 MB

     Dynamical RAM for                 psi:       0.61 MB

     Dynamical RAM for                hpsi:       0.61 MB

     Dynamical RAM for      wfcinit/wfcrot:       0.27 MB

     Estimated static dynamical RAM per process >       8.95 MB

     Estimated max dynamical RAM per process >      10.32 MB

     Estimated total dynamical RAM >       3.22 GB
 ----2D----2D----2D----2D----2D----2D----2D----2D----2D----2D----2D----2D
  The code is running with the 2D cutoff
  Please refer to:
  Sohier, T., Calandra, M., & Mauri, F. (2017), 
  Density functional perturbation theory for gated two-dimensional heterostructu
 res:
  Theoretical developments and application to flexural phonons in graphene.
  Physical Review B, 96(7), 75448. https://doi.org/10.1103/PhysRevB.96.075448
 ----2D----2D----2D----2D----2D----2D----2D----2D----2D----2D----2D----2D

     The potential is recalculated from file :
     ./MoS2.save/charge-density

     Starting wfcs are   36 randomized atomic wfcs +    4 random wfcs

     Band Structure Calculation
     Davidson diagonalization with overlap

     Computing kpt #:     1
     total cpu time spent up to now is        3.3 secs

     Computing kpt #:     2
     total cpu time spent up to now is        4.0 secs

     Computing kpt #:     3
     total cpu time spent up to now is        4.6 secs

     Computing kpt #:     4
     total cpu time spent up to now is        5.2 secs

     Computing kpt #:     5
     total cpu time spent up to now is        5.8 secs

     Computing kpt #:     6
     total cpu time spent up to now is        6.4 secs

     Computing kpt #:     7
     total cpu time spent up to now is        7.0 secs

     Computing kpt #:     8
     total cpu time spent up to now is        7.6 secs

     Computing kpt #:     9
     total cpu time spent up to now is        8.2 secs

     Computing kpt #:    10
     total cpu time spent up to now is        8.8 secs

     Computing kpt #:    11
     total cpu time spent up to now is        9.4 secs

     Computing kpt #:    12
     total cpu time spent up to now is        9.9 secs

     Computing kpt #:    13
     total cpu time spent up to now is       10.5 secs

     Computing kpt #:    14
     total cpu time spent up to now is       11.1 secs

     Computing kpt #:    15
     total cpu time spent up to now is       11.6 secs

     Computing kpt #:    16
     total cpu time spent up to now is       12.2 secs

     Computing kpt #:    17
     total cpu time spent up to now is       12.8 secs

     Computing kpt #:    18
     total cpu time spent up to now is       13.4 secs

     Computing kpt #:    19
     total cpu time spent up to now is       13.8 secs

     ethr =  3.85E-13,  avg # of iterations = 37.9

     total cpu time spent up to now is       13.8 secs

     End of band structure calculation

          k = 0.0000 0.0000 0.0000 (  3949 PWs)   bands (ev):

   -66.7334 -66.7334 -42.4733 -42.4733 -40.0459 -40.0459 -39.8877 -39.8877
   -20.0517 -20.0517 -18.7477 -18.7477 -11.5647 -11.5647  -8.5456  -8.5456
    -8.4804  -8.4804  -7.7327  -7.7327  -7.4312  -7.4312  -7.3458  -7.3458
    -5.9546  -5.9546  -3.1456  -3.1456  -3.0659  -3.0659  -2.8710  -2.8710
    -2.8688  -2.8688   0.0056   0.0056   0.5263   0.5263   0.7736   0.7736

          k = 0.0056 0.0096 0.0000 (  3943 PWs)   bands (ev):

   -66.7334 -66.7334 -42.4734 -42.4734 -40.0459 -40.0459 -39.8879 -39.8879
   -20.0503 -20.0503 -18.7471 -18.7471 -11.5630 -11.5630  -8.5466  -8.5465
    -8.4813  -8.4812  -7.7457  -7.7457  -7.4267  -7.4264  -7.3420  -7.3417
    -5.9552  -5.9552  -3.1457  -3.1454  -3.0660  -3.0658  -2.8755  -2.8741
    -2.8717  -2.8704   0.0105   0.0105   0.5281   0.5281   0.7781   0.7781

          k = 0.0111 0.0192 0.0000 (  3945 PWs)   bands (ev):

   -66.7333 -66.7333 -42.4736 -42.4736 -40.0460 -40.0460 -39.8887 -39.8887
   -20.0461 -20.0461 -18.7453 -18.7453 -11.5581 -11.5581  -8.5508  -8.5502
    -8.4831  -8.4825  -7.7804  -7.7803  -7.4208  -7.4193  -7.3276  -7.3261
    -5.9568  -5.9568  -3.1470  -3.1454  -3.0659  -3.0645  -2.8892  -2.8856
    -2.8780  -2.8745   0.0249   0.0250   0.5334   0.5334   0.7916   0.7916

          k = 0.0167 0.0289 0.0000 (  3944 PWs)   bands (ev):

   -66.7331 -66.7331 -42.4741 -42.4741 -40.0462 -40.0462 -39.8899 -39.8899
   -20.0391 -20.0390 -18.7425 -18.7425 -11.5499 -11.5499  -8.5608  -8.5590
    -8.4833  -8.4814  -7.8292  -7.8290  -7.4238  -7.4203  -7.2997  -7.2963
    -5.9596  -5.9596  -3.1522  -3.1473  -3.0634  -3.0594  -2.9113  -2.9055
    -2.8868  -2.8817   0.0483   0.0484   0.5421   0.5421   0.8142   0.8143

          k = 0.0222 0.0385 0.0000 (  3948 PWs)   bands (ev):

   -66.7329 -66.7329 -42.4748 -42.4748 -40.0465 -40.0465 -39.8916 -39.8915
   -20.0293 -20.0292 -18.7384 -18.7384 -11.5386 -11.5385  -8.5787  -8.5754
    -8.4794  -8.4760  -7.8864  -7.8862  -7.4361  -7.4310  -7.2626  -7.2573
    -5.9636  -5.9636  -3.1631  -3.1539  -3.0560  -3.0494  -2.9405  -2.9321
    -2.8984  -2.8920   0.0797   0.0799   0.5544   0.5544   0.8465   0.8466

          k = 0.0278 0.0481 0.0000 (  3948 PWs)   bands (ev):

   -66.7325 -66.7325 -42.4757 -42.4756 -40.0469 -40.0468 -39.8938 -39.8937
   -20.0167 -20.0166 -18.7332 -18.7332 -11.5240 -11.5239  -8.6043  -8.5996
    -8.4707  -8.4660  -7.9486  -7.9486  -7.4557  -7.4492  -7.2217  -7.2146
    -5.9690  -5.9689  -3.1794  -3.1661  -3.0431  -3.0375  -2.9750  -2.9617
    -2.9121  -2.9054   0.1179   0.1182   0.5700   0.5700   0.8886   0.8888

          k = 0.0333 0.0577 0.0000 (  3950 PWs)   bands (ev):

   -66.7321 -66.7321 -42.4767 -42.4767 -40.0473 -40.0473 -39.8964 -39.8962
   -20.0014 -20.0013 -18.7269 -18.7269 -11.5065 -11.5063  -8.6369  -8.6309
    -8.4578  -8.4519  -8.0142  -8.0138  -7.4814  -7.4738  -7.1801  -7.1712
    -5.9759  -5.9758  -3.2002  -3.1835  -3.0401  -3.0366  -3.0021  -2.9796
    -2.9257  -2.9216   0.1615   0.1620   0.5891   0.5891   0.9409   0.9412

          k = 0.0389 0.0674 0.0000 (  3950 PWs)   bands (ev):

   -66.7317 -66.7317 -42.4780 -42.4779 -40.0479 -40.0478 -39.8995 -39.8992
   -19.9835 -19.9832 -18.7195 -18.7195 -11.4859 -11.4856  -8.6755  -8.6685
    -8.4414  -8.4345  -8.0819  -8.0808  -7.5126  -7.5041  -7.1394  -7.1288
    -5.9846  -5.9843  -3.2240  -3.2048  -3.0735  -3.0717  -2.9871  -2.9795
    -2.9395  -2.9289   0.2094   0.2101   0.6115   0.6115   1.0038   1.0043

          k = 0.0444 0.0770 0.0000 (  3952 PWs)   bands (ev):

   -66.7311 -66.7311 -42.4794 -42.4793 -40.0486 -40.0484 -39.9030 -39.9025
   -19.9628 -19.9625 -18.7110 -18.7110 -11.4625 -11.4621  -8.7195  -8.7115
    -8.4217  -8.4142  -8.1509  -8.1487  -7.5491  -7.5400  -7.1006  -7.0881
    -5.9951  -5.9948  -3.2496  -3.2291  -3.1203  -3.1192  -2.9921  -2.9729
    -2.9445  -2.9077   0.2602   0.2612   0.6372   0.6372   1.0774   1.0781

          k = 0.0500 0.0866 0.0000 (  3962 PWs)   bands (ev):

   -66.7306 -66.7306 -42.4811 -42.4808 -40.0493 -40.0491 -39.9068 -39.9062
   -19.9396 -19.9391 -18.7014 -18.7014 -11.4364 -11.4358  -8.7682  -8.7594
    -8.3992  -8.3922  -8.2206  -8.2161  -7.5909  -7.5814  -7.0642  -7.0498
    -6.0079  -6.0073  -3.2762  -3.2562  -3.1722  -3.1687  -3.0152  -2.9925
    -2.9125  -2.8719   0.3130   0.3143   0.6661   0.6662   1.1616   1.1626

          k = 0.0556 0.0962 0.0000 (  3958 PWs)   bands (ev):

   -66.7299 -66.7299 -42.4829 -42.4825 -40.0502 -40.0499 -39.9111 -39.9103
   -19.9138 -19.9131 -18.6907 -18.6907 -11.4077 -11.4070  -8.8210  -8.8114
    -8.3742  -8.3721  -8.2904  -8.2791  -7.6377  -7.6281  -7.0305  -7.0142
    -6.0231  -6.0222  -3.3027  -3.2870  -3.2267  -3.2166  -3.0426  -3.0189
    -2.8713  -2.8292   0.3670   0.3686   0.6983   0.6983   1.2562   1.2575

          k = 0.0611 0.1058 0.0000 (  3962 PWs)   bands (ev):

   -66.7292 -66.7292 -42.4849 -42.4844 -40.0513 -40.0509 -39.9157 -39.9146
   -19.8855 -19.8846 -18.6790 -18.6790 -11.3767 -11.3757  -8.8773  -8.8670
    -8.3810  -8.3631  -8.3439  -8.3105  -7.6896  -7.6802  -6.9998  -6.9816
    -6.0410  -6.0396  -3.3287  -3.3241  -3.2822  -3.2584  -3.0728  -3.0481
    -2.8254  -2.7817   0.4219   0.4238   0.7335   0.7335   1.3606   1.3623

          k = 0.0667 0.1155 0.0000 (  3964 PWs)   bands (ev):

   -66.7284 -66.7284 -42.4870 -42.4864 -40.0524 -40.0519 -39.9207 -39.9193
   -19.8547 -19.8536 -18.6663 -18.6662 -11.3435 -11.3422  -8.9365  -8.9257
    -8.4374  -8.4309  -8.3159  -8.2915  -7.7465  -7.7374  -6.9722  -6.9520
    -6.0618  -6.0599  -3.3687  -3.3551  -3.3361  -3.2912  -3.1048  -3.0792
    -2.7757  -2.7305   0.4773   0.4796   0.7718   0.7719   1.4741   1.4761

          k = 0.0722 0.1251 0.0000 (  3974 PWs)   bands (ev):

   -66.7276 -66.7276 -42.4894 -42.4886 -40.0537 -40.0531 -39.9259 -39.9241
   -19.8215 -19.8202 -18.6526 -18.6525 -11.3084 -11.3067  -8.9980  -8.9868
    -8.5027  -8.4997  -8.2842  -8.2609  -7.8082  -7.7998  -6.9476  -6.9256
    -6.0858  -6.0830  -3.4176  -3.3978  -3.3710  -3.3169  -3.1382  -3.1118
    -2.7228  -2.6761   0.5333   0.5359   0.8131   0.8131   1.5956   1.5981

          k = 0.0778 0.1347 0.0000 (  3970 PWs)   bands (ev):

   -66.7267 -66.7267 -42.4919 -42.4909 -40.0552 -40.0545 -39.9313 -39.9291
   -19.7861 -19.7843 -18.6380 -18.6378 -11.2717 -11.2695  -9.0613  -9.0498
    -8.5688  -8.5679  -8.2507  -8.2266  -7.8745  -7.8669  -6.9262  -6.9024
    -6.1130  -6.1092  -3.4676  -3.4512  -3.3915  -3.3376  -3.1724  -3.1452
    -2.6670  -2.6190   0.5899   0.5928   0.8572   0.8573   1.7245   1.7274

          k = 0.0833 0.1443 0.0000 (  3968 PWs)   bands (ev):

   -66.7258 -66.7258 -42.4945 -42.4933 -40.0568 -40.0560 -39.9369 -39.9343
   -19.7484 -19.7463 -18.6224 -18.6222 -11.2336 -11.2309  -9.1256  -9.1140
    -8.6350  -8.6344  -8.2158  -8.1902  -7.9450  -7.9387  -6.9079  -6.8825
    -6.1437  -6.1386  -3.5167  -3.5039  -3.4079  -3.3545  -3.2068  -3.1789
    -2.6088  -2.5597   0.6471   0.6504   0.9042   0.9043   1.8594   1.8626

          k = 0.0889 0.1540 0.0000 (  3986 PWs)   bands (ev):

   -66.7248 -66.7248 -42.4973 -42.4959 -40.0587 -40.0577 -39.9427 -39.9396
   -19.7086 -19.7060 -18.6059 -18.6057 -11.1947 -11.1912  -9.1905  -9.1789
    -8.7010  -8.6990  -8.1802  -8.1524  -8.0192  -8.0147  -6.8928  -6.8658
    -6.1778  -6.1710  -3.5639  -3.5550  -3.4209  -3.3682  -3.2407  -3.2122
    -2.5487  -2.4986   0.7052   0.7089   0.9539   0.9540   1.9995   2.0030

          k = 0.0944 0.1636 0.0000 (  3996 PWs)   bands (ev):

   -66.7238 -66.7238 -42.5003 -42.4986 -40.0607 -40.0596 -39.9486 -39.9450
   -19.6667 -19.6636 -18.5885 -18.5883 -11.1551 -11.1509  -9.2551  -9.2438
    -8.7658  -8.7623  -8.1471  -8.1160  -8.0938  -8.0922  -6.8807  -6.8523
    -6.2153  -6.2065  -3.6086  -3.6041  -3.4303  -3.3789  -3.2734  -3.2441
    -2.4869  -2.4362   0.7643   0.7684   1.0062   1.0064   2.1437   2.1473

          k = 0.1000 0.1732 0.0000 (  3992 PWs)   bands (ev):

   -66.7227 -66.7227 -42.5034 -42.5014 -40.0629 -40.0617 -39.9546 -39.9504
   -19.6228 -19.6192 -18.5704 -18.5701 -11.1155 -11.1103  -9.3188  -9.3080
    -8.8293  -8.8242  -8.1846  -8.1794  -8.1008  -8.0727  -6.8717  -6.8419
    -6.2559  -6.2447  -3.6510  -3.6508  -3.4361  -3.3872  -3.3041  -3.2734
    -2.4239  -2.3727   0.8245   0.8290   1.0611   1.0613   2.2909   2.2944

          k = 0.1056 0.1828 0.0000 (  3988 PWs)   bands (ev):

   -66.7217 -66.7217 -42.5066 -42.5042 -40.0654 -40.0640 -39.9605 -39.9558
   -19.5771 -19.5728 -18.5514 -18.5511 -11.0763 -11.0701  -9.3809  -9.3708
    -8.8915  -8.8848  -8.2671  -8.2656  -8.0656  -8.0332  -6.8656  -6.8347
    -6.2994  -6.2854  -3.6958  -3.6902  -3.4383  -3.3943  -3.3319  -3.2983
    -2.3602  -2.3087   0.8858   0.8908   1.1183   1.1186   2.4396   2.4428

          k = 0.1111 0.1925 0.0000 (  3988 PWs)   bands (ev):

   -66.7205 -66.7205 -42.5099 -42.5072 -40.0681 -40.0667 -39.9664 -39.9611
   -19.5296 -19.5246 -18.5317 -18.5314 -11.0383 -11.0308  -9.4406  -9.4315
    -8.9525  -8.9440  -8.3545  -8.3532  -8.0298  -7.9941  -6.8626  -6.8306
    -6.3453  -6.3280  -3.7386  -3.7271  -3.4375  -3.4018  -3.3559  -3.3165
    -2.2962  -2.2447   0.9484   0.9540   1.1778   1.1782   2.5885   2.5909

          k = 0.1167 0.2021 0.0000 (  3984 PWs)   bands (ev):

   -66.7194 -66.7194 -42.5133 -42.5102 -40.0710 -40.0696 -39.9722 -39.9664
   -19.4805 -19.4747 -18.5113 -18.5109 -11.0020 -10.9932  -9.4972  -9.4893
    -9.0127  -9.0021  -8.4450  -8.4410  -7.9952  -7.9561  -6.8625  -6.8295
    -6.3930  -6.3719  -3.7795  -3.7616  -3.4345  -3.4113  -3.3745  -3.3259
    -2.2322  -2.1808   1.0123   1.0184   1.2395   1.2399   2.7355   2.7364

          k = 0.1222 0.2117 0.0000 (  3986 PWs)   bands (ev):

   -66.7182 -66.7182 -42.5168 -42.5133 -40.0741 -40.0728 -39.9778 -39.9715
   -19.4298 -19.4232 -18.4903 -18.4898 -10.9683 -10.9579  -9.5496  -9.5433
    -9.0722  -9.0593  -8.5364  -8.5293  -7.9628  -7.9201  -6.8653  -6.8314
    -6.4417  -6.4164  -3.8183  -3.7938  -3.4316  -3.4223  -3.3853  -3.3263
    -2.1687  -2.1177   1.0774   1.0843   1.3032   1.3037   2.8762   2.8778

          k = 0.1278 0.2213 0.0000 (  3990 PWs)   bands (ev):

   -66.7170 -66.7170 -42.5204 -42.5165 -40.0775 -40.0764 -39.9833 -39.9765
   -19.3778 -19.3703 -18.4687 -18.4681 -10.9380 -10.9258  -9.5970  -9.5925
    -9.1316  -9.1161  -8.6275  -8.6172  -7.9336  -7.8870  -6.8709  -6.8363
    -6.4907  -6.4605  -3.8550  -3.8238  -3.4331  -3.4319  -3.3849  -3.3194
    -2.1061  -2.0557   1.1439   1.1514   1.3687   1.3693   3.0055   3.0108

          k = 0.1333 0.2309 0.0000 (  3986 PWs)   bands (ev):

   -66.7158 -66.7158 -42.5241 -42.5197 -40.0811 -40.0803 -39.9885 -39.9813
   -19.3244 -19.3159 -18.4465 -18.4459 -10.9119 -10.8978  -9.6386  -9.6361
    -9.1917  -9.1732  -8.7172  -8.7033  -7.9088  -7.8577  -6.8795  -6.8442
    -6.5387  -6.5033  -3.8893  -3.8514  -3.4415  -3.4347  -3.3743  -3.3071
    -2.0446  -1.9951   1.2116   1.2199   1.4360   1.4367   3.1161   3.1265

          k = 0.1389 0.2406 0.0000 (  3972 PWs)   bands (ev):

   -66.7146 -66.7146 -42.5278 -42.5229 -40.0849 -40.0845 -39.9935 -39.9860
   -19.2699 -19.2604 -18.4239 -18.4231 -10.8909 -10.8749  -9.6733  -9.6731
    -9.2533  -9.2317  -8.8039  -8.7862  -7.8892  -7.8336  -6.8908  -6.8549
    -6.5847  -6.5435  -3.9207  -3.8765  -3.4467  -3.4364  -3.3573  -3.2906
    -1.9846  -1.9362   1.2805   1.2897   1.5049   1.5057   3.1967   3.2123

          k = 0.1444 0.2502 0.0000 (  3980 PWs)   bands (ev):

   -66.7134 -66.7134 -42.5316 -42.5261 -40.0890 -40.0889 -39.9981 -39.9904
   -19.2144 -19.2038 -18.4008 -18.4000 -10.8757 -10.8578  -9.7028  -9.7007
    -9.3177  -9.2930  -8.8858  -8.8644  -7.8762  -7.8159  -6.9049  -6.8686
    -6.6274  -6.5801  -3.9488  -3.8986  -3.4483  -3.4356  -3.3362  -3.2708
    -1.9266  -1.8795   1.3504   1.3606   1.5751   1.5760   3.2370   3.2553

          k = 0.1500 0.2598 0.0000 (  3988 PWs)   bands (ev):

   -66.7122 -66.7122 -42.5354 -42.5294 -40.0938 -40.0930 -40.0025 -39.9947
   -19.1581 -19.1462 -18.3773 -18.3764 -10.8668 -10.8470  -9.7246  -9.7203
    -9.3858  -9.3585  -8.9609  -8.9363  -7.8706  -7.8057  -6.9217  -6.8851
    -6.6656  -6.6119  -3.9730  -3.9172  -3.4464  -3.4317  -3.3118  -3.2482
    -1.8708  -1.8254   1.4213   1.4326   1.6467   1.6476   3.2369   3.2546

          k = 0.1556 0.2694 0.0000 (  3998 PWs)   bands (ev):

   -66.7109 -66.7109 -42.5392 -42.5326 -40.0989 -40.0973 -40.0067 -39.9988
   -19.1011 -19.0879 -18.3535 -18.3525 -10.8643 -10.8429  -9.7384  -9.7319
    -9.4584  -9.4294  -9.0277  -9.0006  -7.8735  -7.8043  -6.9410  -6.9045
    -6.6983  -6.6382  -3.9927  -3.9318  -3.4411  -3.4250  -3.2848  -3.2231
    -1.8174  -1.7738   1.4928   1.5054   1.7193   1.7204   3.2060   3.2221

          k = 0.1611 0.2791 0.0000 (  4002 PWs)   bands (ev):

   -66.7097 -66.7097 -42.5431 -42.5358 -40.1042 -40.1016 -40.0105 -40.0028
   -19.0435 -19.0289 -18.3294 -18.3283 -10.8679 -10.8453  -9.7442  -9.7359
    -9.5360  -9.5061  -9.0851  -9.0567  -7.8853  -7.8125  -6.9627  -6.9267
    -6.7245  -6.6582  -4.0072  -3.9417  -3.4330  -3.4159  -3.2555  -3.1960
    -1.7666  -1.7252   1.5648   1.5789   1.7929   1.7940   3.1553   3.1703

          k = 0.1667 0.2887 0.0000 (  4006 PWs)   bands (ev):

   -66.7085 -66.7085 -42.5469 -42.5390 -40.1097 -40.1060 -40.0141 -40.0066
   -18.9856 -18.9695 -18.3052 -18.3040 -10.8770 -10.8537  -9.7428  -9.7333
    -9.6181  -9.5882  -9.1331  -9.1044  -7.9063  -7.8306  -6.9867  -6.9517
    -6.7440  -6.6718  -4.0162  -3.9466  -3.4224  -3.4048  -3.2243  -3.1672
    -1.7186  -1.6796   1.6369   1.6526   1.8674   1.8686   3.0917   3.1069

          k = 0.1722 0.2983 0.0000 (  4002 PWs)   bands (ev):

   -66.7073 -66.7073 -42.5507 -42.5422 -40.1153 -40.1104 -40.0175 -40.0102
   -18.9274 -18.9097 -18.2808 -18.2794 -10.8908 -10.8673  -9.7356  -9.7265
    -9.7034  -9.6728  -9.1726  -9.1442  -7.9361  -7.8587  -7.0129  -6.9792
    -6.7566  -6.6791  -4.0190  -3.9459  -3.4100  -3.3923  -3.1916  -3.1371
    -1.6735  -1.6373   1.7086   1.7263   1.9426   1.9438   3.0201   3.0366

          k = 0.1778 0.3079 0.0000 (  3998 PWs)   bands (ev):

   -66.7061 -66.7061 -42.5545 -42.5453 -40.1210 -40.1148 -40.0207 -40.0138
   -18.8692 -18.8499 -18.2563 -18.2549 -10.9082 -10.8849  -9.7933  -9.7696
    -9.7215  -9.7060  -9.2044  -9.1768  -7.9743  -7.8960  -7.0413  -7.0092
    -6.7627  -6.6806  -4.0154  -3.9395  -3.3960  -3.3789  -3.1576  -3.1059
    -1.6312  -1.5982   1.7792   1.7993   2.0183   2.0195   2.9432   2.9621

          k = 0.1833 0.3175 0.0000 (  3998 PWs)   bands (ev):

   -66.7049 -66.7049 -42.5583 -42.5484 -40.1268 -40.1191 -40.0237 -40.0172
   -18.8112 -18.7902 -18.2318 -18.2303 -10.9281 -10.9054  -9.8835  -9.8598
    -9.7048  -9.6904  -9.2296  -9.2029  -8.0201  -7.9417  -7.0720  -7.0416
    -6.7629  -6.6771  -4.0052  -3.9273  -3.3811  -3.3651  -3.1228  -3.0742
    -1.5919  -1.5623   1.8477   1.8706   2.0946   2.0957   2.8633   2.8858

          k = 0.1889 0.3272 0.0000 (  3998 PWs)   bands (ev):

   -66.7038 -66.7038 -42.5620 -42.5514 -40.1325 -40.1234 -40.0266 -40.0206
   -18.7535 -18.7307 -18.2075 -18.2058 -10.9494 -10.9278  -9.9748  -9.9523
    -9.6853  -9.6709  -9.2490  -9.2232  -8.0724  -7.9947  -7.1048  -7.0762
    -6.7581  -6.6690  -3.9886  -3.9095  -3.3653  -3.3513  -3.0876  -3.0424
    -1.5553  -1.5296   1.9125   1.9390   2.1711   2.1722   2.7828   2.8102

          k = 0.1944 0.3368 0.0000 (  4008 PWs)   bands (ev):

   -66.7027 -66.7027 -42.5656 -42.5543 -40.1381 -40.1275 -40.0293 -40.0239
   -18.6964 -18.6717 -18.1832 -18.1814 -10.9711 -10.9508 -10.0661 -10.0450
    -9.6642  -9.6500  -9.2631  -9.2382  -8.1304  -8.0539  -7.1398  -7.1129
    -6.7488  -6.6570  -3.9657  -3.8867  -3.3489  -3.3378  -3.0524  -3.0108
    -1.5213  -1.4999   1.9714   2.0021   2.2479   2.2489   2.7044   2.7381

          k = 0.2000 0.3464 0.0000 (  4016 PWs)   bands (ev):

   -66.7016 -66.7016 -42.5691 -42.5571 -40.1437 -40.1314 -40.0320 -40.0271
   -18.6400 -18.6134 -18.1592 -18.1573 -10.9922 -10.9736 -10.1568 -10.1370
    -9.6426  -9.6286  -9.2725  -9.2483  -8.1932  -8.1181  -7.1768  -7.1516
    -6.7357  -6.6417  -3.9372  -3.8596  -3.3317  -3.3249  -3.0176  -2.9798
    -1.4897  -1.4730   2.0206   2.0561   2.3248   2.3256   2.6321   2.6733

          k = 0.2056 0.3560 0.0000 (  4016 PWs)   bands (ev):

   -66.7005 -66.7005 -42.5726 -42.5598 -40.1491 -40.1352 -40.0345 -40.0303
   -18.5845 -18.5559 -18.1355 -18.1334 -11.0120 -10.9953 -10.2462 -10.2278
    -9.6213  -9.6077  -9.2774  -9.2540  -8.2598  -8.1864  -7.2157  -7.1922
    -6.7192  -6.6232  -3.9040  -3.8295  -3.3133  -3.3125  -2.9834  -2.9498
    -1.4602  -1.4485   2.0548   2.0947   2.4018   2.4025   2.5727   2.6217

          k = 0.2111 0.3657 0.0000 (  4012 PWs)   bands (ev):

   -66.6995 -66.6995 -42.5759 -42.5624 -40.1544 -40.1387 -40.0370 -40.0334
   -18.5302 -18.4995 -18.1121 -18.1099 -11.0298 -11.0152 -10.3341 -10.3167
    -9.6011  -9.5881  -9.2783  -9.2554  -8.3297  -8.2580  -7.2564  -7.2345
    -6.6997  -6.6019  -3.8673  -3.7983  -3.3003  -3.2929  -2.9503  -2.9213
    -1.4325  -1.4261   2.0677   2.1087   2.4781   2.4793   2.5352   2.5890

          k = 0.2167 0.3753 0.0000 (  4008 PWs)   bands (ev):

   -66.6985 -66.6985 -42.5792 -42.5649 -40.1594 -40.1421 -40.0394 -40.0366
   -18.4771 -18.4443 -18.0892 -18.0868 -11.0450 -11.0327 -10.4198 -10.4035
    -9.5825  -9.5703  -9.2754  -9.2530  -8.4022  -8.3323  -7.2986  -7.2785
    -6.6773  -6.5778  -3.8289  -3.7679  -3.2876  -3.2693  -2.9189  -2.8946
    -1.4060  -1.4054   2.0555   2.0917   2.5203   2.5558   2.5586   2.5783

          k = 0.2222 0.3849 0.0000 (  4014 PWs)   bands (ev):

   -66.6976 -66.6976 -42.5823 -42.5673 -40.1643 -40.1451 -40.0417 -40.0397
   -18.4256 -18.3906 -18.0668 -18.0643 -11.0571 -11.0473 -10.5031 -10.4878
    -9.5662  -9.5548  -9.2689  -9.2469  -8.4766  -8.4087  -7.3423  -7.3239
    -6.6521  -6.5509  -3.7912  -3.7412  -3.2730  -3.2409  -2.8894  -2.8702
    -1.3859  -1.3806   2.0206   2.0475   2.5307   2.5846   2.6331   2.6345

          k = 0.2278 0.3945 0.0000 (  4022 PWs)   bands (ev):

   -66.6967 -66.6967 -42.5852 -42.5695 -40.1689 -40.1479 -40.0440 -40.0428
   -18.3758 -18.3386 -18.0450 -18.0424 -11.0656 -11.0584 -10.5837 -10.5693
    -9.5524  -9.5420  -9.2589  -9.2374  -8.5527  -8.4867  -7.3873  -7.3705
    -6.6240  -6.5213  -3.7572  -3.7205  -3.2547  -3.2061  -2.8624  -2.8485
    -1.3673  -1.3557   1.9699   1.9864   2.5490   2.6009   2.7096   2.7113

          k = 0.2333 0.4041 0.0000 (  4036 PWs)   bands (ev):

   -66.6958 -66.6958 -42.5881 -42.5716 -40.1733 -40.1504 -40.0462 -40.0458
   -18.3278 -18.2885 -18.0239 -18.0211 -11.0702 -11.0657 -10.6613 -10.6477
    -9.5414  -9.5320  -9.2458  -9.2246  -8.6297  -8.5659  -7.4334  -7.4183
    -6.5933  -6.4888  -3.7300  -3.7080  -3.2303  -3.1638  -2.8381  -2.8297
    -1.3489  -1.3310   1.9098   1.9167   2.5651   2.6175   2.7860   2.7881

          k = 0.2389 0.4138 0.0000 (  4040 PWs)   bands (ev):

   -66.6950 -66.6950 -42.5908 -42.5736 -40.1774 -40.1526 -40.0489 -40.0484
   -18.2819 -18.2404 -18.0035 -18.0006 -11.0704 -11.0688 -10.7356 -10.7228
    -9.5335  -9.5250  -9.2297  -9.2090  -8.7073  -8.6458  -7.4803  -7.4670
    -6.5599  -6.4537  -3.7127  -3.7048  -3.1979  -3.1137  -2.8166  -2.8141
    -1.3305  -1.3061   1.8443   1.8460   2.5718   2.6272   2.8622   2.8649

          k = 0.2444 0.4234 0.0000 (  4040 PWs)   bands (ev):

   -66.6942 -66.6942 -42.5933 -42.5755 -40.1812 -40.1546 -40.0520 -40.0505
   -18.2382 -18.1945 -17.9839 -17.9809 -11.0675 -11.0662 -10.8065 -10.7943
    -9.5288  -9.5213  -9.2109  -9.1907  -8.7849  -8.7262  -7.5279  -7.5164
    -6.5239  -6.4159  -3.7111  -3.7069  -3.1566  -3.0564  -2.8017  -2.7984
    -1.3117  -1.2809   1.7718   1.7811   2.5651   2.6250   2.9384   2.9416

          k = 0.2500 0.4330 0.0000 (  4048 PWs)   bands (ev):

   -66.6935 -66.6935 -42.5957 -42.5772 -40.1847 -40.1562 -40.0550 -40.0526
   -18.1969 -18.1510 -17.9652 -17.9621 -11.0615 -11.0573 -10.8737 -10.8621
    -9.5277  -9.5209  -9.1895  -9.1703  -8.8615  -8.8065  -7.5759  -7.5662
    -6.4856  -6.3757  -3.7262  -3.7130  -3.1070  -2.9933  -2.7928  -2.7834
    -1.2923  -1.2552   1.7011   1.7176   2.5433   2.6080   3.0141   3.0178

          k = 0.2556 0.4426 0.0000 (  4040 PWs)   bands (ev):

   -66.6928 -66.6928 -42.5980 -42.5788 -40.1879 -40.1575 -40.0581 -40.0547
   -18.1580 -18.1101 -17.9475 -17.9443 -11.0507 -11.0434 -10.9371 -10.9260
    -9.5303  -9.5238  -9.1660  -9.1491  -8.9357  -8.8861  -7.6241  -7.6164
    -6.4453  -6.3333  -3.7490  -3.7298  -3.0509  -2.9260  -2.7869  -2.7711
    -1.2719  -1.2288   1.6339   1.6570   2.5082   2.5769   3.0898   3.0939

          k = 0.2611 0.4523 0.0000 (  4036 PWs)   bands (ev):

   -66.6922 -66.6922 -42.6000 -42.5802 -40.1909 -40.1586 -40.0611 -40.0567
   -18.1218 -18.0719 -17.9308 -17.9275 -11.0350 -11.0247 -10.9963 -10.9856
    -9.5371  -9.5304  -9.1408  -9.1307  -9.0030  -8.9642  -7.6722  -7.6665
    -6.4033  -6.2890  -3.7785  -3.7558  -2.9907  -2.8561  -2.7842  -2.7615
    -1.2507  -1.2019   1.5707   1.6001   2.4620   2.5332   3.1648   3.1694

          k = 0.2667 0.4619 0.0000 (  4042 PWs)   bands (ev):

   -66.6916 -66.6916 -42.6019 -42.5815 -40.1935 -40.1593 -40.0641 -40.0586
   -18.0882 -18.0364 -17.9151 -17.9118 -11.0521 -11.0421 -11.0135 -11.0000
    -9.5488  -9.5410  -9.1339  -9.1160  -9.0442  -9.0383  -7.7200  -7.7163
    -6.3601  -6.2433  -3.8133  -3.7892  -2.9296  -2.7893  -2.7803  -2.7533
    -1.2288  -1.1746   1.5125   1.5480   2.4076   2.4796   3.2388   3.2439

          k = 0.2722 0.4715 0.0000 (  4048 PWs)   bands (ev):

   -66.6911 -66.6911 -42.6037 -42.5827 -40.1958 -40.1598 -40.0670 -40.0604
   -18.0575 -18.0038 -17.9006 -17.8973 -11.1029 -11.0932 -10.9877 -10.9712
    -9.5663  -9.5560  -9.1787  -9.1254  -9.0738  -9.0379  -7.7670  -7.7655
    -6.3163  -6.1969  -3.8521  -3.8282  -2.8721  -2.7882  -2.7437  -2.7139
    -1.2062  -1.1471   1.4598   1.5013   2.3478   2.4191   3.3117   3.3173

          k = 0.2778 0.4811 0.0000 (  4042 PWs)   bands (ev):

   -66.6906 -66.6906 -42.6053 -42.5837 -40.1979 -40.1600 -40.0699 -40.0622
   -18.0296 -17.9742 -17.8873 -17.8839 -11.1495 -11.1402 -10.9567 -10.9372
    -9.5910  -9.5765  -9.2347  -9.1893  -9.0495  -9.0131  -7.8138  -7.8129
    -6.2725  -6.1501  -3.8938  -3.8712  -2.8268  -2.7932  -2.7251  -2.6452
    -1.1832  -1.1197   1.4144   1.4617   2.2850   2.3544   3.3829   3.3890

          k = 0.2833 0.4907 0.0000 (  4048 PWs)   bands (ev):

   -66.6902 -66.6902 -42.6067 -42.5846 -40.1996 -40.1600 -40.0726 -40.0639
   -18.0046 -17.9476 -17.8752 -17.8718 -11.1918 -11.1828 -10.9208 -10.8985
    -9.6241  -9.6036  -9.2867  -9.2516  -9.0201  -8.9837  -7.8607  -7.8574
    -6.2294  -6.1040  -3.9370  -3.9166  -2.8038  -2.8002  -2.6891  -2.5794
    -1.1603  -1.0928   1.3761   1.4293   2.2206   2.2867   3.4517   3.4582

          k = 0.2889 0.5004 0.0000 (  4048 PWs)   bands (ev):

   -66.6898 -66.6898 -42.6079 -42.5854 -40.2011 -40.1597 -40.0753 -40.0654
   -17.9824 -17.9240 -17.8644 -17.8610 -11.2295 -11.2208 -10.8803 -10.8552
    -9.6662  -9.6384  -9.3308  -9.3066  -8.9901  -8.9528  -7.9057  -7.8999
    -6.1878  -6.0591  -3.9804  -3.9628  -2.8085  -2.7978  -2.6413  -2.5179
    -1.1377  -1.0669   1.3455   1.4048   2.1558   2.2178   3.5174   3.5243

          k = 0.2944 0.5100 0.0000 (  4064 PWs)   bands (ev):

   -66.6895 -66.6895 -42.6090 -42.5861 -40.2024 -40.1593 -40.0779 -40.0669
   -17.9631 -17.9034 -17.8548 -17.8515 -11.2627 -11.2542 -10.8357 -10.8081
    -9.7165  -9.6813  -9.3663  -9.3527  -8.9606  -8.9219  -7.9484  -7.9398
    -6.1485  -6.0164  -4.0227  -4.0085  -2.8177  -2.7994  -2.5921  -2.4616
    -1.1161  -1.0423   1.3230   1.3885   2.0913   2.1484   3.5789   3.5861

          k = 0.3000 0.5196 0.0000 (  4060 PWs)   bands (ev):

   -66.6892 -66.6892 -42.6099 -42.5867 -40.2034 -40.1588 -40.0802 -40.0682
   -17.9467 -17.8859 -17.8466 -17.8433 -11.2914 -11.2831 -10.7877 -10.7576
    -9.7729  -9.7312  -9.3942  -9.3898  -8.9323  -8.8918  -7.9880  -7.9766
    -6.1124  -5.9769  -4.0626  -4.0518  -2.8272  -2.8041  -2.5461  -2.4114
    -1.0959  -1.0196   1.3094   1.3816   2.0282   2.0795   3.6355   3.6430

          k = 0.3056 0.5292 0.0000 (  4060 PWs)   bands (ev):

   -66.6890 -66.6890 -42.6106 -42.5871 -40.2042 -40.1582 -40.0824 -40.0693
   -17.9331 -17.8713 -17.8397 -17.8364 -11.3155 -11.3073 -10.7373 -10.7051
    -9.8325  -9.7857  -9.4190  -9.4161  -8.9063  -8.8636  -8.0237  -8.0095
    -6.0803  -5.9416  -4.0989  -4.0916  -2.8365  -2.8103  -2.5055  -2.3682
    -1.0775  -0.9992   1.3047   1.3841   1.9678   2.0123   3.6856   3.6933

          k = 0.3111 0.5389 0.0000 (  4060 PWs)   bands (ev):

   -66.6888 -66.6888 -42.6112 -42.5875 -40.2048 -40.1575 -40.0842 -40.0703
   -17.9222 -17.8596 -17.8340 -17.8308 -11.3350 -11.3270 -10.6861 -10.6523
    -9.8919  -9.8413  -9.4417  -9.4332  -8.8833  -8.8384  -8.0547  -8.0377
    -6.0530  -5.9113  -4.1302  -4.1262  -2.8452  -2.8167  -2.4715  -2.3324
    -1.0616  -0.9816   1.3081   1.3956   1.9106   1.9474   3.7281   3.7361

          k = 0.3167 0.5485 0.0000 (  4068 PWs)   bands (ev):

   -66.6886 -66.6886 -42.6117 -42.5877 -40.2052 -40.1569 -40.0858 -40.0711
   -17.9139 -17.8508 -17.8297 -17.8266 -11.3501 -11.3422 -10.6370 -10.6019
    -9.9476  -9.8941  -9.4592  -9.4466  -8.8644  -8.8174  -8.0801  -8.0605
    -6.0312  -5.8869  -4.1556  -4.1545  -2.8528  -2.8228  -2.4449  -2.3046
    -1.0485  -0.9672   1.3181   1.4148   1.8585   1.8862   3.7618   3.7698

          k = 0.3222 0.5581 0.0000 (  4064 PWs)   bands (ev):

   -66.6885 -66.6885 -42.6120 -42.5879 -40.2054 -40.1563 -40.0870 -40.0717
   -17.9081 -17.8446 -17.8266 -17.8235 -11.3607 -11.3529 -10.5940 -10.5584
    -9.9948  -9.9390  -9.4722  -9.4565  -8.8502  -8.8015  -8.0988  -8.0772
    -6.0155  -5.8693  -4.1754  -4.1743  -2.8587  -2.8277  -2.4259  -2.2849
    -1.0386  -0.9565   1.3324   1.4395   1.8148   1.8323   3.7864   3.7945

          k = 0.3278 0.5677 0.0000 (  4054 PWs)   bands (ev):

   -66.6885 -66.6885 -42.6122 -42.5880 -40.2056 -40.1560 -40.0877 -40.0721
   -17.9048 -17.8410 -17.8248 -17.8218 -11.3670 -11.3592 -10.5634 -10.5277
   -10.0274  -9.9698  -9.4805  -9.4630  -8.8415  -8.7916  -8.1102  -8.0873
    -6.0061  -5.8586  -4.1881  -4.1856  -2.8625  -2.8309  -2.4146  -2.2731
    -1.0325  -0.9499   1.3461   1.4631   1.7837   1.7913   3.8012   3.8093

          k = 0.3333 0.5774 0.0000 (  4050 PWs)   bands (ev):

   -66.6885 -66.6885 -42.6123 -42.5880 -40.2056 -40.1558 -40.0880 -40.0722
   -17.9037 -17.8398 -17.8243 -17.8212 -11.3691 -11.3613 -10.5520 -10.5164
   -10.0392  -9.9808  -9.4835  -9.4653  -8.8386  -8.7883  -8.1140  -8.0906
    -6.0030  -5.8551  -4.1924  -4.1894  -2.8638  -2.8321  -2.4108  -2.2693
    -1.0303  -0.9476   1.3524   1.4742   1.7718   1.7747   3.8061   3.8142

          k = 0.3278 0.5774 0.0000 (  4046 PWs)   bands (ev):

   -66.6885 -66.6885 -42.6123 -42.5880 -40.2056 -40.1559 -40.0879 -40.0722
   -17.9040 -17.8401 -17.8244 -17.8213 -11.3686 -11.3608 -10.5550 -10.5193
   -10.0362  -9.9781  -9.4827  -9.4646  -8.8393  -8.7891  -8.1131  -8.0898
    -6.0038  -5.8559  -4.1913  -4.1884  -2.8635  -2.8317  -2.4117  -2.2702
    -1.0309  -0.9481   1.3506   1.4710   1.7752   1.7794   3.8049   3.8131

          k = 0.3222 0.5774 0.0000 (  4066 PWs)   bands (ev):

   -66.6885 -66.6885 -42.6122 -42.5880 -40.2056 -40.1560 -40.0877 -40.0721
   -17.9048 -17.8409 -17.8248 -17.8217 -11.3671 -11.3593 -10.5636 -10.5278
   -10.0278  -9.9704  -9.4798  -9.4625  -8.8414  -8.7915  -8.1104  -8.0875
    -6.0060  -5.8585  -4.1882  -4.1857  -2.8624  -2.8308  -2.4144  -2.2730
    -1.0325  -0.9499   1.3445   1.4610   1.7848   1.7929   3.8011   3.8093

          k = 0.3167 0.5774 0.0000 (  4066 PWs)   bands (ev):

   -66.6885 -66.6885 -42.6122 -42.5880 -40.2055 -40.1562 -40.0874 -40.0719
   -17.9060 -17.8423 -17.8255 -17.8224 -11.3646 -11.3568 -10.5773 -10.5413
   -10.0145  -9.9585  -9.4747  -9.4585  -8.8448  -8.7954  -8.1060  -8.0836
    -6.0096  -5.8625  -4.1831  -4.1812  -2.8605  -2.8291  -2.4188  -2.2775
    -1.0353  -0.9529   1.3348   1.4457   1.8015   1.8152   3.7957   3.8039

          k = 0.3111 0.5774 0.0000 (  4062 PWs)   bands (ev):

   -66.6885 -66.6885 -42.6121 -42.5879 -40.2055 -40.1564 -40.0869 -40.0717
   -17.9077 -17.8442 -17.8265 -17.8234 -11.3611 -11.3533 -10.5954 -10.5592
    -9.9976  -9.9435  -9.4670  -9.4526  -8.8494  -8.8006  -8.1001  -8.0784
    -6.0144  -5.8681  -4.1761  -4.1749  -2.8577  -2.8266  -2.4248  -2.2836
    -1.0393  -0.9572   1.3213   1.4258   1.8244   1.8445   3.7884   3.7965

          k = 0.3056 0.5774 0.0000 (  4066 PWs)   bands (ev):

   -66.6886 -66.6886 -42.6119 -42.5879 -40.2055 -40.1568 -40.0863 -40.0714
   -17.9099 -17.8465 -17.8277 -17.8246 -11.3568 -11.3489 -10.6170 -10.5807
    -9.9783  -9.9268  -9.4561  -9.4442  -8.8552  -8.8071  -8.0928  -8.0720
    -6.0205  -5.8750  -4.1672  -4.1671  -2.8540  -2.8233  -2.4323  -2.2914
    -1.0444  -0.9627   1.3049   1.4030   1.8530   1.8795   3.7793   3.7874

          k = 0.3000 0.5774 0.0000 (  4066 PWs)   bands (ev):

   -66.6886 -66.6886 -42.6118 -42.5878 -40.2054 -40.1572 -40.0856 -40.0710
   -17.9125 -17.8494 -17.8292 -17.8261 -11.3515 -11.3436 -10.6414 -10.6051
    -9.9577  -9.9094  -9.4416  -9.4330  -8.8619  -8.8146  -8.0843  -8.0645
    -6.0277  -5.8831  -4.1577  -4.1567  -2.8494  -2.8192  -2.4413  -2.3007
    -1.0507  -0.9694   1.2861   1.3781   1.8867   1.9193   3.7687   3.7768

          k = 0.2944 0.5774 0.0000 (  4062 PWs)   bands (ev):

   -66.6887 -66.6887 -42.6116 -42.5877 -40.2054 -40.1577 -40.0847 -40.0706
   -17.9155 -17.8526 -17.8309 -17.8278 -11.3453 -11.3373 -10.6680 -10.6316
    -9.9368  -9.8925  -9.4232  -9.4186  -8.8695  -8.8231  -8.0747  -8.0560
    -6.0358  -5.8923  -4.1470  -4.1445  -2.8438  -2.8141  -2.4517  -2.3114
    -1.0582  -0.9774   1.2653   1.3517   1.9248   1.9630   3.7568   3.7649

          k = 0.2889 0.5774 0.0000 (  4060 PWs)   bands (ev):

   -66.6887 -66.6887 -42.6114 -42.5876 -40.2053 -40.1583 -40.0837 -40.0700
   -17.9188 -17.8563 -17.8329 -17.8297 -11.3382 -11.3302 -10.6961 -10.6598
    -9.9166  -9.8769  -9.4007  -9.4006  -8.8778  -8.8324  -8.0642  -8.0467
    -6.0448  -5.9025  -4.1349  -4.1310  -2.8371  -2.8082  -2.4633  -2.3234
    -1.0669  -0.9866   1.2429   1.3243   1.9667   2.0099   3.7438   3.7518

          k = 0.2833 0.5774 0.0000 (  4060 PWs)   bands (ev):

   -66.6888 -66.6888 -42.6112 -42.5875 -40.2053 -40.1590 -40.0826 -40.0695
   -17.9226 -17.8604 -17.8351 -17.8319 -11.3303 -11.3223 -10.7255 -10.6892
    -9.8979  -9.8632  -9.3790  -9.3735  -8.8868  -8.8423  -8.0530  -8.0366
    -6.0546  -5.9135  -4.1216  -4.1161  -2.8295  -2.8014  -2.4761  -2.3367
    -1.0768  -0.9972   1.2194   1.2963   2.0120   2.0597   3.7295   3.7375

          k = 0.2778 0.5774 0.0000 (  4048 PWs)   bands (ev):

   -66.6889 -66.6889 -42.6109 -42.5875 -40.2052 -40.1597 -40.0814 -40.0688
   -17.9266 -17.8649 -17.8375 -17.8343 -11.3217 -11.3136 -10.7557 -10.7196
    -9.8812  -9.8516  -9.3532  -9.3421  -8.8964  -8.8527  -8.0411  -8.0261
    -6.0650  -5.9252  -4.1073  -4.1001  -2.8207  -2.7936  -2.4899  -2.3511
    -1.0878  -1.0089   1.1953   1.2680   2.0610   2.1129   3.7144   3.7223

          k = 0.2722 0.5774 0.0000 (  4048 PWs)   bands (ev):

   -66.6890 -66.6890 -42.6107 -42.5874 -40.2052 -40.1605 -40.0800 -40.0681
   -17.9310 -17.8697 -17.8401 -17.8369 -11.3122 -11.3041 -10.7865 -10.7507
    -9.8668  -9.8425  -9.3233  -9.3065  -8.9063  -8.8635  -8.0289  -8.0151
    -6.0759  -5.9375  -4.0921  -4.0830  -2.8110  -2.7850  -2.5046  -2.3666
    -1.1000  -1.0219   1.1703   1.2394   2.1120   2.1676   3.6984   3.7063

          k = 0.2667 0.5774 0.0000 (  4044 PWs)   bands (ev):

   -66.6890 -66.6890 -42.6104 -42.5873 -40.2052 -40.1614 -40.0786 -40.0673
   -17.9357 -17.8749 -17.8428 -17.8396 -11.3021 -11.2939 -10.8177 -10.7822
    -9.8548  -9.8355  -9.2896  -9.2670  -8.9166  -8.8744  -8.0163  -8.0038
    -6.0872  -5.9502  -4.0760  -4.0650  -2.8001  -2.7756  -2.5201  -2.3831
    -1.1133  -1.0361   1.1450   1.2107   2.1654   2.2244   3.6819   3.6897

          k = 0.2611 0.5774 0.0000 (  4040 PWs)   bands (ev):

   -66.6891 -66.6891 -42.6101 -42.5871 -40.2052 -40.1623 -40.0771 -40.0664
   -17.9406 -17.8804 -17.8458 -17.8426 -11.2912 -11.2830 -10.8491 -10.8139
    -9.8453  -9.8306  -9.2522  -9.2240  -8.9271  -8.8855  -8.0035  -7.9922
    -6.0989  -5.9633  -4.0593  -4.0463  -2.7881  -2.7654  -2.5362  -2.4005
    -1.1278  -1.0515   1.1193   1.1820   2.2211   2.2832   3.6649   3.6726

          k = 0.2556 0.5774 0.0000 (  4036 PWs)   bands (ev):

   -66.6892 -66.6892 -42.6098 -42.5870 -40.2052 -40.1632 -40.0755 -40.0655
   -17.9458 -17.8862 -17.8489 -17.8457 -11.2797 -11.2714 -10.8806 -10.8459
    -9.8380  -9.8276  -9.2116  -9.1779  -8.9377  -8.8964  -7.9906  -7.9806
    -6.1108  -5.9766  -4.0419  -4.0270  -2.7749  -2.7546  -2.5525  -2.4186
    -1.1433  -1.0680   1.0935   1.1533   2.2785   2.3435   3.6477   3.6553

          k = 0.2500 0.5774 0.0000 (  4040 PWs)   bands (ev):

   -66.6893 -66.6893 -42.6094 -42.5869 -40.2052 -40.1642 -40.0739 -40.0645
   -17.9512 -17.8922 -17.8522 -17.8490 -11.2676 -11.2592 -10.9121 -10.8778
    -9.8328  -9.8261  -9.1682  -9.1291  -8.9484  -8.9069  -7.9778  -7.9689
    -6.1229  -5.9900  -4.0241  -4.0071  -2.7607  -2.7435  -2.5688  -2.4375
    -1.1599  -1.0857   1.0677   1.1249   2.3376   2.4054   3.6300   3.6375

          k = 0.2444 0.5774 0.0000 (  4044 PWs)   bands (ev):

   -66.6894 -66.6894 -42.6091 -42.5868 -40.2052 -40.1653 -40.0721 -40.0634
   -17.9568 -17.8985 -17.8556 -17.8524 -11.2549 -11.2464 -10.9435 -10.9097
    -9.8295  -9.8260  -9.1228  -9.0780  -8.9590  -8.9167  -7.9650  -7.9574
    -6.1350  -6.0035  -4.0059  -3.9869  -2.7453  -2.7327  -2.5843  -2.4570
    -1.1774  -1.1044   1.0418   1.0965   2.3983   2.4686   3.6123   3.6197

          k = 0.2389 0.5774 0.0000 (  4042 PWs)   bands (ev):

   -66.6895 -66.6895 -42.6087 -42.5867 -40.2053 -40.1663 -40.0703 -40.0623
   -17.9626 -17.9050 -17.8592 -17.8560 -11.2418 -11.2331 -10.9746 -10.9414
    -9.8277  -9.8271  -9.0767  -9.0250  -8.9693  -8.9245  -7.9524  -7.9459
    -6.1471  -6.0170  -3.9875  -3.9663  -2.7288  -2.7232  -2.5980  -2.4770
    -1.1960  -1.1242   1.0160   1.0685   2.4603   2.5330   3.5945   3.6018

          k = 0.2333 0.5774 0.0000 (  4050 PWs)   bands (ev):

   -66.6897 -66.6897 -42.6083 -42.5866 -40.2053 -40.1674 -40.0685 -40.0611
   -17.9685 -17.9117 -17.8629 -17.8597 -11.2281 -11.2193 -11.0055 -10.9729
    -9.8291  -9.8272  -9.0332  -8.9824  -8.9674  -8.9277  -7.9400  -7.9347
    -6.1591  -6.0303  -3.9689  -3.9456  -2.7170  -2.7113  -2.6078  -2.4974
    -1.2154  -1.1449   0.9903   1.0407   2.5233   2.5984   3.5765   3.5836

          k = 0.2278 0.5774 0.0000 (  4044 PWs)   bands (ev):

   -66.6898 -66.6898 -42.6079 -42.5865 -40.2054 -40.1686 -40.0666 -40.0599
   -17.9746 -17.9186 -17.8666 -17.8635 -11.2140 -11.2050 -11.0360 -11.0041
    -9.8318  -9.8279  -9.0014  -8.9909  -8.9169  -8.9127  -7.9280  -7.9237
    -6.1710  -6.0435  -3.9502  -3.9248  -2.7165  -2.6928  -2.6110  -2.5179
    -1.2357  -1.1666   0.9648   1.0132   2.5875   2.6648   3.5588   3.5658

          k = 0.2222 0.5774 0.0000 (  4048 PWs)   bands (ev):

   -66.6899 -66.6899 -42.6075 -42.5864 -40.2055 -40.1697 -40.0647 -40.0586
   -17.9808 -17.9256 -17.8705 -17.8674 -11.1997 -11.1904 -11.0661 -11.0350
    -9.8353  -9.8297  -9.0008  -8.9913  -8.8826  -8.8550  -7.9163  -7.9131
    -6.1828  -6.0564  -3.9315  -3.9040  -2.7231  -2.6735  -2.6063  -2.5384
    -1.2568  -1.1891   0.9395   0.9861   2.6523   2.7318   3.5411   3.5479

          k = 0.2167 0.5774 0.0000 (  4046 PWs)   bands (ev):

   -66.6900 -66.6900 -42.6071 -42.5863 -40.2056 -40.1709 -40.0628 -40.0573
   -17.9871 -17.9328 -17.8745 -17.8714 -11.1853 -11.1754 -11.0954 -11.0655
    -9.8394  -9.8322  -9.0104  -8.9938  -8.8340  -8.7961  -7.9050  -7.9029
    -6.1943  -6.0692  -3.9129  -3.8832  -2.7357  -2.6541  -2.5948  -2.5581
    -1.2787  -1.2124   0.9144   0.9592   2.7179   2.7995   3.5237   3.5303

          k = 0.2111 0.5774 0.0000 (  4030 PWs)   bands (ev):

   -66.6901 -66.6901 -42.6067 -42.5862 -40.2057 -40.1720 -40.0608 -40.0559
   -17.9935 -17.9401 -17.8785 -17.8755 -11.1718 -11.1601 -11.1230 -11.0955
    -9.8439  -9.8354  -9.0198  -9.0004  -8.7798  -8.7362  -7.8942  -7.8930
    -6.2056  -6.0816  -3.8945  -3.8627  -2.7520  -2.6366  -2.5784  -2.5747
    -1.3012  -1.2364   0.8898   0.9329   2.7843   2.8680   3.5066   3.5131

          k = 0.2056 0.5774 0.0000 (  4030 PWs)   bands (ev):

   -66.6903 -66.6903 -42.6063 -42.5861 -40.2058 -40.1732 -40.0588 -40.0545
   -17.9999 -17.9475 -17.8826 -17.8796 -11.1675 -11.1453 -11.1408 -11.1243
    -9.8488  -9.8393  -9.0288  -9.0083  -8.7230  -8.6755  -7.8838  -7.8836
    -6.2166  -6.0937  -3.8764  -3.8424  -2.7705  -2.6298  -2.5798  -2.5590
    -1.3243  -1.2612   0.8653   0.9069   2.8500   2.9358   3.4896   3.4959

          k = 0.2000 0.5774 0.0000 (  4038 PWs)   bands (ev):

   -66.6904 -66.6904 -42.6058 -42.5860 -40.2059 -40.1744 -40.0568 -40.0530
   -18.0064 -17.9550 -17.8868 -17.8838 -11.1879 -11.1557 -11.1330 -11.1273
    -9.8541  -9.8437  -9.0374  -9.0165  -8.6645  -8.6141  -7.8747  -7.8740
    -6.2273  -6.1055  -3.8586  -3.8225  -2.7903  -2.6407  -2.5662  -2.5373
    -1.3479  -1.2865   0.8409   0.8810   2.9150   3.0028   3.4727   3.4789

          k = 0.1944 0.5774 0.0000 (  4046 PWs)   bands (ev):

   -66.6905 -66.6905 -42.6054 -42.5860 -40.2061 -40.1756 -40.0548 -40.0515
   -18.0129 -17.9625 -17.8909 -17.8880 -11.2144 -11.1838 -11.1185 -11.1118
    -9.8596  -9.8484  -9.0455  -9.0247  -8.6051  -8.5521  -7.8663  -7.8646
    -6.2377  -6.1170  -3.8412  -3.8030  -2.8107  -2.6593  -2.5439  -2.5139
    -1.3721  -1.3124   0.8170   0.8557   2.9793   3.0690   3.4560   3.4620

          k = 0.1889 0.5774 0.0000 (  4046 PWs)   bands (ev):

   -66.6906 -66.6906 -42.6049 -42.5859 -40.2062 -40.1768 -40.0528 -40.0500
   -18.0194 -17.9701 -17.8952 -17.8923 -11.2413 -11.2119 -11.1029 -11.0957
    -9.8653  -9.8536  -9.0532  -9.0327  -8.5448  -8.4898  -7.8584  -7.8559
    -6.2479  -6.1281  -3.8242  -3.7840  -2.8316  -2.6799  -2.5183  -2.4888
    -1.3966  -1.3387   0.7935   0.8308   3.0419   3.1332   3.4397   3.4454

          k = 0.1833 0.5774 0.0000 (  4050 PWs)   bands (ev):

   -66.6908 -66.6908 -42.6044 -42.5858 -40.2064 -40.1779 -40.0508 -40.0485
   -18.0259 -17.9776 -17.8994 -17.8965 -11.2679 -11.2394 -11.0868 -11.0795
    -9.8712  -9.8590  -9.0605  -9.0402  -8.4840  -8.4270  -7.8510  -7.8477
    -6.2577  -6.1389  -3.8078  -3.7655  -2.8525  -2.7011  -2.4910  -2.4625
    -1.4214  -1.3654   0.7702   0.8061   3.1015   3.1937   3.4234   3.4290

          k = 0.1778 0.5774 0.0000 (  4054 PWs)   bands (ev):

   -66.6909 -66.6909 -42.6040 -42.5858 -40.2065 -40.1791 -40.0488 -40.0469
   -18.0324 -17.9852 -17.9036 -17.9008 -11.2940 -11.2664 -11.0707 -11.0632
    -9.8772  -9.8647  -9.0672  -9.0474  -8.4228  -8.3641  -7.8442  -7.8401
    -6.2673  -6.1494  -3.7920  -3.7477  -2.8734  -2.7225  -2.4622  -2.4350
[...]
    -9.8178  -9.8178  -8.7249  -8.7249  -7.5468  -7.5468  -7.2836  -7.2836
    -6.8916  -6.8916  -3.6816  -3.6816  -3.5763  -3.5763  -2.5236  -2.5236
    -1.8070  -1.8070   1.6108   1.6108   1.9059   1.9059   2.1648   2.1648

          k = 0.0000 0.3657 0.0000 (  4010 PWs)   bands (ev):

   -66.7054 -66.7054 -42.5530 -42.5530 -40.1358 -40.1358 -40.0029 -40.0029
   -18.8175 -18.8175 -18.2451 -18.2451 -11.1047 -11.1047 -10.0178 -10.0178
    -9.8136  -9.8136  -8.6918  -8.6918  -7.5206  -7.5206  -7.3207  -7.3207
    -6.8836  -6.8836  -3.6799  -3.6799  -3.5944  -3.5944  -2.5717  -2.5717
    -1.8325  -1.8325   1.5786   1.5786   1.8807   1.8807   2.2610   2.2610

          k = 0.0000 0.3560 0.0000 (  4002 PWs)   bands (ev):

   -66.7063 -66.7063 -42.5501 -42.5501 -40.1304 -40.1304 -40.0016 -40.0016
   -18.8668 -18.8668 -18.2647 -18.2647 -11.0687 -11.0687  -9.9593  -9.9593
    -9.8093  -9.8093  -8.6575  -8.6575  -7.4953  -7.4953  -7.3572  -7.3572
    -6.8703  -6.8703  -3.6813  -3.6813  -3.6061  -3.6061  -2.6207  -2.6207
    -1.8594  -1.8594   1.5412   1.5412   1.8505   1.8505   2.3575   2.3575

          k = 0.0000 0.3464 0.0000 (  4002 PWs)   bands (ev):

   -66.7073 -66.7073 -42.5471 -42.5471 -40.1251 -40.1251 -40.0001 -40.0001
   -18.9164 -18.9164 -18.2844 -18.2844 -11.0356 -11.0356  -9.9005  -9.9005
    -9.8036  -9.8036  -8.6220  -8.6220  -7.4752  -7.4752  -7.3884  -7.3884
    -6.8520  -6.8520  -3.6878  -3.6878  -3.6094  -3.6094  -2.6704  -2.6704
    -1.8878  -1.8878   1.5008   1.5008   1.8154   1.8154   2.4505   2.4505

          k = 0.0000 0.3368 0.0000 (  4002 PWs)   bands (ev):

   -66.7083 -66.7083 -42.5441 -42.5441 -40.1197 -40.1197 -39.9985 -39.9985
   -18.9662 -18.9662 -18.3043 -18.3043 -11.0060 -11.0060  -9.8439  -9.8439
    -9.7932  -9.7932  -8.5853  -8.5853  -7.4769  -7.4769  -7.3980  -7.3980
    -6.8289  -6.8289  -3.6985  -3.6985  -3.6048  -3.6048  -2.7204  -2.7204
    -1.9176  -1.9176   1.4584   1.4584   1.7760   1.7760   2.5376   2.5376

          k = 0.0000 0.3272 0.0000 (  4004 PWs)   bands (ev):

   -66.7093 -66.7093 -42.5411 -42.5411 -40.1144 -40.1144 -39.9967 -39.9967
   -19.0160 -19.0160 -18.3243 -18.3243 -10.9806 -10.9806  -9.8058  -9.8058
    -9.7613  -9.7613  -8.5476  -8.5476  -7.5062  -7.5062  -7.3800  -7.3800
    -6.8012  -6.8012  -3.7109  -3.7109  -3.5949  -3.5949  -2.7706  -2.7706
    -1.9489  -1.9489   1.4145   1.4145   1.7328   1.7328   2.6165   2.6165

          k = 0.0000 0.3175 0.0000 (  3998 PWs)   bands (ev):

   -66.7104 -66.7104 -42.5380 -42.5380 -40.1092 -40.1092 -39.9947 -39.9947
   -19.0657 -19.0657 -18.3443 -18.3443 -10.9600 -10.9600  -9.7888  -9.7888
    -9.7046  -9.7046  -8.5089  -8.5089  -7.5452  -7.5452  -7.3523  -7.3523
    -6.7695  -6.7695  -3.7230  -3.7230  -3.5814  -3.5814  -2.8204  -2.8204
    -1.9816  -1.9816   1.3697   1.3697   1.6865   1.6865   2.6856   2.6856

          k = 0.0000 0.3079 0.0000 (  3994 PWs)   bands (ev):

   -66.7114 -66.7114 -42.5350 -42.5350 -40.1042 -40.1042 -39.9925 -39.9925
   -19.1152 -19.1152 -18.3643 -18.3643 -10.9449 -10.9449  -9.7728  -9.7728
    -9.6423  -9.6423  -8.4691  -8.4691  -7.5871  -7.5871  -7.3217  -7.3217
    -6.7341  -6.7341  -3.7336  -3.7336  -3.5652  -3.5652  -2.8696  -2.8696
    -2.0157  -2.0157   1.3241   1.3241   1.6376   1.6376   2.7423   2.7423

          k = 0.0000 0.2983 0.0000 (  3990 PWs)   bands (ev):

   -66.7125 -66.7125 -42.5319 -42.5319 -40.0993 -40.0993 -39.9901 -39.9901
   -19.1643 -19.1643 -18.3841 -18.3841 -10.9357 -10.9357  -9.7535  -9.7535
    -9.5784  -9.5784  -8.4285  -8.4285  -7.6303  -7.6303  -7.2901  -7.2901
    -6.6957  -6.6957  -3.7420  -3.7420  -3.5469  -3.5469  -2.9179  -2.9179
    -2.0512  -2.0512   1.2780   1.2780   1.5868   1.5868   2.7844   2.7844

          k = 0.0000 0.2887 0.0000 (  3986 PWs)   bands (ev):

   -66.7135 -66.7135 -42.5288 -42.5288 -40.0945 -40.0945 -39.9874 -39.9874
   -19.2130 -19.2130 -18.4038 -18.4038 -10.9324 -10.9324  -9.7299  -9.7299
    -9.5137  -9.5137  -8.3871  -8.3871  -7.6742  -7.6742  -7.2580  -7.2580
    -6.6547  -6.6547  -3.7478  -3.7478  -3.5268  -3.5268  -2.9649  -2.9649
    -2.0880  -2.0880   1.2313   1.2313   1.5347   1.5347   2.8096   2.8096

          k = 0.0000 0.2791 0.0000 (  3986 PWs)   bands (ev):

   -66.7145 -66.7145 -42.5258 -42.5258 -40.0900 -40.0900 -39.9844 -39.9844
   -19.2610 -19.2610 -18.4233 -18.4233 -10.9351 -10.9351  -9.7014  -9.7014
    -9.4483  -9.4483  -8.3450  -8.3450  -7.7182  -7.7182  -7.2261  -7.2261
    -6.6118  -6.6118  -3.7507  -3.7507  -3.5052  -3.5052  -3.0102  -3.0102
    -2.1260  -2.1260   1.1844   1.1844   1.4817   1.4817   2.8160   2.8160

          k = 0.0000 0.2694 0.0000 (  3982 PWs)   bands (ev):

   -66.7156 -66.7156 -42.5228 -42.5228 -40.0858 -40.0858 -39.9812 -39.9812
   -19.3084 -19.3084 -18.4426 -18.4426 -10.9435 -10.9435  -9.6683  -9.6683
    -9.3826  -9.3826  -8.3023  -8.3023  -7.7623  -7.7623  -7.1946  -7.1946
    -6.5676  -6.5676  -3.7504  -3.7504  -3.4821  -3.4821  -3.0535  -3.0535
    -2.1652  -2.1652   1.1371   1.1371   1.4282   1.4282   2.8023   2.8023

          k = 0.0000 0.2598 0.0000 (  3982 PWs)   bands (ev):

   -66.7166 -66.7166 -42.5198 -42.5198 -40.0818 -40.0818 -39.9777 -39.9777
   -19.3550 -19.3550 -18.4616 -18.4616 -10.9571 -10.9571  -9.6305  -9.6305
    -9.3165  -9.3165  -8.2590  -8.2590  -7.8061  -7.8061  -7.1640  -7.1640
    -6.5226  -6.5226  -3.7466  -3.7466  -3.4578  -3.4578  -3.0944  -3.0944
    -2.2055  -2.2055   1.0897   1.0897   1.3746   1.3746   2.7687   2.7687

          k = 0.0000 0.2502 0.0000 (  3985 PWs)   bands (ev):

   -66.7176 -66.7176 -42.5168 -42.5168 -40.0781 -40.0781 -39.9740 -39.9740
   -19.4008 -19.4008 -18.4802 -18.4802 -10.9753 -10.9753  -9.5885  -9.5885
    -9.2502  -9.2502  -8.2153  -8.2153  -7.8495  -7.8495  -7.1345  -7.1345
    -6.4775  -6.4775  -3.7392  -3.7392  -3.4324  -3.4324  -3.1325  -3.1325
    -2.2469  -2.2469   1.0422   1.0422   1.3212   1.3212   2.7165   2.7165

          k = 0.0000 0.2406 0.0000 (  3989 PWs)   bands (ev):

   -66.7187 -66.7187 -42.5139 -42.5139 -40.0746 -40.0746 -39.9701 -39.9701
   -19.4455 -19.4455 -18.4985 -18.4985 -10.9976 -10.9976  -9.5428  -9.5428
    -9.1838  -9.1838  -8.1714  -8.1714  -7.8923  -7.8923  -7.1067  -7.1067
    -6.4327  -6.4327  -3.7279  -3.7279  -3.4062  -3.4062  -3.1675  -3.1675
    -2.2891  -2.2891   0.9947   0.9947   1.2684   1.2684   2.6478   2.6478

          k = 0.0000 0.2309 0.0000 (  3995 PWs)   bands (ev):

   -66.7197 -66.7197 -42.5111 -42.5111 -40.0715 -40.0715 -39.9659 -39.9659
   -19.4892 -19.4892 -18.5164 -18.5164 -11.0231 -11.0231  -9.4939  -9.4939
    -9.1173  -9.1173  -8.1275  -8.1275  -7.9341  -7.9341  -7.0808  -7.0808
    -6.3887  -6.3887  -3.7127  -3.7127  -3.3793  -3.3793  -3.1989  -3.1989
    -2.3321  -2.3321   0.9473   0.9473   1.2164   1.2164   2.5655   2.5655

          k = 0.0000 0.2213 0.0000 (  3993 PWs)   bands (ev):

   -66.7207 -66.7207 -42.5083 -42.5083 -40.0686 -40.0686 -39.9616 -39.9616
   -19.5317 -19.5317 -18.5338 -18.5338 -11.0513 -11.0513  -9.4422  -9.4422
    -9.0508  -9.0508  -8.0846  -8.0846  -7.9741  -7.9741  -7.0573  -7.0573
    -6.3461  -6.3461  -3.6935  -3.6935  -3.3522  -3.3522  -3.2262  -3.2262
    -2.3757  -2.3757   0.8999   0.8999   1.1654   1.1654   2.4721   2.4721

          k = 0.0000 0.2117 0.0000 (  3981 PWs)   bands (ev):

   -66.7216 -66.7216 -42.5056 -42.5056 -40.0660 -40.0660 -39.9571 -39.9571
   -19.5729 -19.5729 -18.5507 -18.5507 -11.0816 -11.0816  -9.3885  -9.3885
    -8.9843  -8.9843  -8.0497  -8.0497  -8.0051  -8.0051  -7.0364  -7.0364
    -6.3051  -6.3051  -3.6702  -3.6702  -3.3259  -3.3259  -3.2481  -3.2481
    -2.4198  -2.4198   0.8528   0.8528   1.1156   1.1156   2.3704   2.3704

          k = 0.0000 0.2021 0.0000 (  3985 PWs)   bands (ev):

   -66.7226 -66.7226 -42.5029 -42.5029 -40.0636 -40.0636 -39.9525 -39.9525
   -19.6129 -19.6129 -18.5671 -18.5671 -11.1133 -11.1133  -9.3332  -9.3332
    -8.9179  -8.9179  -8.0643  -8.0643  -7.9856  -7.9856  -7.0187  -7.0187
    -6.2662  -6.2662  -3.6431  -3.6431  -3.3047  -3.3047  -3.2605  -3.2605
    -2.4642  -2.4642   0.8057   0.8057   1.0671   1.0671   2.2626   2.2626

          k = 0.0000 0.1925 0.0000 (  3983 PWs)   bands (ev):

   -66.7235 -66.7235 -42.5004 -42.5004 -40.0614 -40.0614 -39.9479 -39.9479
   -19.6515 -19.6515 -18.5829 -18.5829 -11.1459 -11.1459  -9.2768  -9.2768
    -8.8516  -8.8516  -8.0999  -8.0999  -7.9443  -7.9443  -7.0043  -7.0043
    -6.2296  -6.2296  -3.6121  -3.6121  -3.3007  -3.3007  -3.2510  -3.2510
    -2.5088  -2.5088   0.7588   0.7588   1.0202   1.0202   2.1509   2.1509

          k = 0.0000 0.1828 0.0000 (  3983 PWs)   bands (ev):

   -66.7244 -66.7244 -42.4979 -42.4979 -40.0595 -40.0595 -39.9432 -39.9432
   -19.6886 -19.6886 -18.5982 -18.5982 -11.1790 -11.1790  -9.2198  -9.2198
    -8.7854  -8.7854  -8.1362  -8.1362  -7.9014  -7.9014  -6.9936  -6.9936
    -6.1955  -6.1955  -3.5776  -3.5776  -3.3070  -3.3070  -3.2267  -3.2267
    -2.5533  -2.5533   0.7120   0.7120   0.9749   0.9749   2.0371   2.0371

          k = 0.0000 0.1732 0.0000 (  3979 PWs)   bands (ev):

   -66.7252 -66.7252 -42.4955 -42.4955 -40.0578 -40.0578 -39.9385 -39.9385
   -19.7242 -19.7242 -18.6128 -18.6128 -11.2122 -11.2122  -9.1626  -9.1626
    -8.7195  -8.7195  -8.1717  -8.1717  -7.8585  -7.8585  -6.9867  -6.9867
    -6.1640  -6.1640  -3.5398  -3.5398  -3.3121  -3.3121  -3.1991  -3.1991
    -2.5976  -2.5976   0.6654   0.6654   0.9313   0.9313   1.9227   1.9227

          k = 0.0000 0.1636 0.0000 (  3981 PWs)   bands (ev):

   -66.7261 -66.7261 -42.4932 -42.4932 -40.0562 -40.0562 -39.9338 -39.9338
   -19.7582 -19.7582 -18.6268 -18.6268 -11.2451 -11.2451  -9.1057  -9.1057
    -8.6539  -8.6539  -8.2058  -8.2058  -7.8162  -7.8162  -6.9840  -6.9840
    -6.1352  -6.1352  -3.4992  -3.4992  -3.3136  -3.3136  -3.1710  -3.1710
    -2.6414  -2.6414   0.6188   0.6188   0.8895   0.8895   1.8093   1.8093

          k = 0.0000 0.1540 0.0000 (  3975 PWs)   bands (ev):

   -66.7268 -66.7268 -42.4910 -42.4910 -40.0548 -40.0548 -39.9293 -39.9293
   -19.7905 -19.7905 -18.6401 -18.6401 -11.2775 -11.2775  -9.0494  -9.0494
    -8.5886  -8.5886  -8.2384  -8.2384  -7.7747  -7.7747  -6.9855  -6.9855
    -6.1090  -6.1090  -3.4565  -3.4565  -3.3110  -3.3110  -3.1429  -3.1429
    -2.6843  -2.6843   0.5723   0.5723   0.8497   0.8497   1.6980   1.6980

          k = 0.0000 0.1443 0.0000 (  3963 PWs)   bands (ev):

   -66.7276 -66.7276 -42.4890 -42.4890 -40.0535 -40.0535 -39.9248 -39.9248
   -19.8212 -19.8212 -18.6528 -18.6528 -11.3089 -11.3089  -8.9942  -8.9942
    -8.5239  -8.5239  -8.2691  -8.2691  -7.7342  -7.7342  -6.9912  -6.9912
    -6.0855  -6.0855  -3.4123  -3.4123  -3.3037  -3.3037  -3.1153  -3.1153
    -2.7263  -2.7263   0.5258   0.5258   0.8120   0.8120   1.5900   1.5900

          k = 0.0000 0.1347 0.0000 (  3961 PWs)   bands (ev):

   -66.7283 -66.7283 -42.4870 -42.4870 -40.0524 -40.0524 -39.9205 -39.9205
   -19.8502 -19.8502 -18.6647 -18.6647 -11.3392 -11.3392  -8.9405  -8.9405
    -8.4601  -8.4601  -8.2975  -8.2975  -7.6951  -7.6951  -7.0013  -7.0013
    -6.0645  -6.0645  -3.3684  -3.3684  -3.2912  -3.2912  -3.0884  -3.0884
    -2.7670  -2.7670   0.4793   0.4793   0.7763   0.7763   1.4864   1.4864

          k = 0.0000 0.1251 0.0000 (  3959 PWs)   bands (ev):

   -66.7290 -66.7290 -42.4852 -42.4852 -40.0514 -40.0514 -39.9163 -39.9163
   -19.8773 -19.8773 -18.6758 -18.6758 -11.3682 -11.3682  -8.8886  -8.8886
    -8.3995  -8.3995  -8.3214  -8.3214  -7.6574  -7.6574  -7.0155  -7.0155
    -6.0460  -6.0460  -3.3280  -3.3280  -3.2710  -3.2710  -3.0626  -3.0626
    -2.8061  -2.8061   0.4328   0.4328   0.7428   0.7428   1.3880   1.3880

          k = 0.0000 0.1155 0.0000 (  3951 PWs)   bands (ev):

   -66.7296 -66.7296 -42.4834 -42.4834 -40.0505 -40.0505 -39.9124 -39.9124
   -19.9026 -19.9026 -18.6863 -18.6863 -11.3956 -11.3956  -8.8388  -8.8388
    -8.3672  -8.3672  -8.3156  -8.3156  -7.6214  -7.6214  -7.0337  -7.0337
    -6.0297  -6.0297  -3.2959  -3.2959  -3.2396  -3.2396  -3.0381  -3.0381
    -2.8432  -2.8432   0.3863   0.3863   0.7116   0.7116   1.2957   1.2957

          k = 0.0000 0.1058 0.0000 (  3949 PWs)   bands (ev):

   -66.7302 -66.7302 -42.4819 -42.4819 -40.0497 -40.0497 -39.9087 -39.9087
   -19.9260 -19.9260 -18.6959 -18.6959 -11.4214 -11.4214  -8.7917  -8.7917
    -8.3826  -8.3826  -8.2608  -8.2608  -7.5874  -7.5874  -7.0559  -7.0559
    -6.0155  -6.0155  -3.2714  -3.2714  -3.1988  -3.1988  -3.0153  -3.0153
    -2.8776  -2.8776   0.3401   0.3401   0.6826   0.6826   1.2103   1.2103

          k = 0.0000 0.0962 0.0000 (  3957 PWs)   bands (ev):

   -66.7308 -66.7308 -42.4804 -42.4804 -40.0490 -40.0490 -39.9052 -39.9052
   -19.9476 -19.9476 -18.7048 -18.7048 -11.4454 -11.4454  -8.7475  -8.7475
    -8.4028  -8.4028  -8.1999  -8.1999  -7.5555  -7.5555  -7.0816  -7.0816
    -6.0032  -6.0032  -3.2499  -3.2499  -3.1548  -3.1548  -2.9954  -2.9954
    -2.9081  -2.9081   0.2942   0.2942   0.6559   0.6559   1.1320   1.1320

          k = 0.0000 0.0866 0.0000 (  3959 PWs)   bands (ev):

   -66.7313 -66.7313 -42.4791 -42.4791 -40.0484 -40.0484 -39.9020 -39.9020
   -19.9671 -19.9671 -18.7128 -18.7128 -11.4674 -11.4674  -8.7066  -8.7066
    -8.4218  -8.4218  -8.1387  -8.1387  -7.5261  -7.5261  -7.1105  -7.1105
    -5.9927  -5.9927  -3.2295  -3.2295  -3.1113  -3.1113  -2.9819  -2.9819
    -2.9305  -2.9305   0.2493   0.2493   0.6316   0.6316   1.0616   1.0616

          k = 0.0000 0.0770 0.0000 (  3965 PWs)   bands (ev):

   -66.7317 -66.7317 -42.4778 -42.4778 -40.0478 -40.0478 -39.8991 -39.8991
   -19.9847 -19.9847 -18.7201 -18.7201 -11.4874 -11.4874  -8.6694  -8.6694
    -8.4390  -8.4390  -8.0783  -8.0783  -7.4993  -7.4993  -7.1422  -7.1422
    -5.9838  -5.9838  -3.2100  -3.2100  -3.0710  -3.0710  -2.9841  -2.9841
    -2.9344  -2.9344   0.2058   0.2058   0.6098   0.6098   0.9991   0.9991

          k = 0.0000 0.0674 0.0000 (  3959 PWs)   bands (ev):

   -66.7321 -66.7321 -42.4768 -42.4768 -40.0473 -40.0473 -39.8965 -39.8965
   -20.0003 -20.0003 -18.7265 -18.7265 -11.5052 -11.5052  -8.6363  -8.6363
    -8.4537  -8.4537  -8.0192  -8.0192  -7.4754  -7.4754  -7.1761  -7.1761
    -5.9764  -5.9764  -3.1917  -3.1917  -3.0413  -3.0413  -2.9911  -2.9911
    -2.9239  -2.9239   0.1645   0.1645   0.5904   0.5904   0.9446   0.9446

          k = 0.0000 0.0577 0.0000 (  3955 PWs)   bands (ev):

   -66.7325 -66.7325 -42.4759 -42.4759 -40.0469 -40.0469 -39.8942 -39.8942
   -20.0139 -20.0139 -18.7321 -18.7321 -11.5208 -11.5208  -8.6078  -8.6078
    -8.4659  -8.4659  -7.9617  -7.9617  -7.4548  -7.4548  -7.2115  -7.2115
    -5.9702  -5.9702  -3.1756  -3.1756  -3.0386  -3.0386  -2.9751  -2.9751
    -2.9110  -2.9110   0.1261   0.1261   0.5735   0.5735   0.8981   0.8981

          k = 0.0000 0.0481 0.0000 (  3949 PWs)   bands (ev):

   -66.7328 -66.7328 -42.4751 -42.4751 -40.0466 -40.0466 -39.8922 -39.8922
   -20.0254 -20.0254 -18.7368 -18.7368 -11.5341 -11.5341  -8.5845  -8.5845
    -8.4751  -8.4751  -7.9066  -7.9066  -7.4381  -7.4381  -7.2472  -7.2472
    -5.9652  -5.9652  -3.1624  -3.1624  -3.0489  -3.0489  -2.9472  -2.9472
    -2.8989  -2.8989   0.0917   0.0917   0.5592   0.5592   0.8594   0.8594

          k = 0.0000 0.0385 0.0000 (  3947 PWs)   bands (ev):

   -66.7330 -66.7330 -42.4744 -42.4744 -40.0463 -40.0463 -39.8906 -39.8906
   -20.0348 -20.0348 -18.7407 -18.7407 -11.5450 -11.5450  -8.5669  -8.5669
    -8.4808  -8.4808  -7.8549  -7.8549  -7.4260  -7.4260  -7.2814  -7.2814
    -5.9613  -5.9613  -3.1531  -3.1531  -3.0580  -3.0580  -2.9210  -2.9210
    -2.8886  -2.8886   0.0620   0.0620   0.5474   0.5474   0.8281   0.8281

          k = 0.0000 0.0289 0.0000 (  3937 PWs)   bands (ev):

   -66.7332 -66.7332 -42.4739 -42.4739 -40.0461 -40.0461 -39.8893 -39.8893
   -20.0422 -20.0422 -18.7437 -18.7437 -11.5536 -11.5536  -8.5553  -8.5553
    -8.4829  -8.4829  -7.8083  -7.8083  -7.4199  -7.4199  -7.3111  -7.3111
    -5.9583  -5.9583  -3.1478  -3.1478  -3.0634  -3.0634  -2.8994  -2.8994
    -2.8803  -2.8803   0.0379   0.0379   0.5382   0.5382   0.8040   0.8040

          k = 0.0000 0.0192 0.0000 (  3939 PWs)   bands (ev):

   -66.7333 -66.7333 -42.4735 -42.4735 -40.0460 -40.0460 -39.8884 -39.8884
   -20.0475 -20.0475 -18.7459 -18.7459 -11.5597 -11.5597  -8.5490  -8.5490
    -8.4824  -8.4824  -7.7694  -7.7694  -7.4212  -7.4212  -7.3322  -7.3322
    -5.9562  -5.9562  -3.1458  -3.1458  -3.0655  -3.0655  -2.8834  -2.8834
    -2.8743  -2.8743   0.0202   0.0202   0.5316   0.5316   0.7871   0.7871

          k = 0.0000 0.0096 0.0000 (  3941 PWs)   bands (ev):

   -66.7334 -66.7334 -42.4733 -42.4733 -40.0459 -40.0459 -39.8879 -39.8879
   -20.0506 -20.0506 -18.7472 -18.7472 -11.5634 -11.5634  -8.5463  -8.5463
    -8.4811  -8.4811  -7.7425  -7.7425  -7.4276  -7.4276  -7.3429  -7.3429
    -5.9550  -5.9550  -3.1455  -3.1455  -3.0659  -3.0659  -2.8739  -2.8739
    -2.8705  -2.8705   0.0093   0.0093   0.5277   0.5277   0.7769   0.7769

          k = 0.0000 0.0000 0.0000 (  3949 PWs)   bands (ev):

   -66.7334 -66.7334 -42.4733 -42.4733 -40.0459 -40.0459 -39.8877 -39.8877
   -20.0517 -20.0517 -18.7477 -18.7477 -11.5647 -11.5647  -8.5456  -8.5456
    -8.4804  -8.4804  -7.7327  -7.7327  -7.4312  -7.4312  -7.3458  -7.3458
    -5.9546  -5.9546  -3.1456  -3.1456  -3.0659  -3.0659  -2.8710  -2.8710
    -2.8688  -2.8688   0.0056   0.0056   0.5263   0.5263   0.7736   0.7736

     Writing output data file MoS2.save/
 
     init_run     :      0.09s CPU      0.12s WALL (       1 calls)
     electrons    :     10.86s CPU     11.21s WALL (       1 calls)

     Called by init_run:
     wfcinit      :      0.00s CPU      0.00s WALL (       1 calls)
     wfcinit:atom :      0.00s CPU      0.00s WALL (      19 calls)
     wfcinit:wfcr :      0.26s CPU      0.30s WALL (      19 calls)
     potinit      :      0.06s CPU      0.08s WALL (       1 calls)
     hinit0       :      0.02s CPU      0.03s WALL (       1 calls)

     Called by electrons:
     c_bands      :     10.86s CPU     11.21s WALL (       1 calls)
     v_of_rho     :      0.00s CPU      0.00s WALL (       1 calls)
     v_h          :      0.00s CPU      0.00s WALL (       1 calls)
     v_xc         :      0.00s CPU      0.00s WALL (       1 calls)

     Called by c_bands:
     init_us_2    :      0.00s CPU      0.00s WALL (      19 calls)
     cegterg      :      7.33s CPU      7.63s WALL (      38 calls)

     Called by sum_band:

     Called by *egterg:
     h_psi        :      3.94s CPU      4.22s WALL (     615 calls)
     g_psi        :      0.03s CPU      0.03s WALL (     558 calls)
     cdiaghg      :      2.72s CPU      2.76s WALL (     577 calls)
     cegterg:over :      0.39s CPU      0.40s WALL (     558 calls)
     cegterg:upda :      0.28s CPU      0.28s WALL (     558 calls)
     cegterg:last :      0.14s CPU      0.14s WALL (     114 calls)
     cdiaghg:chol :      0.15s CPU      0.15s WALL (     577 calls)
     cdiaghg:inve :      0.08s CPU      0.09s WALL (     577 calls)
     cdiaghg:para :      0.20s CPU      0.20s WALL (    1154 calls)

     Called by h_psi:
     h_psi:pot    :      3.93s CPU      4.20s WALL (     615 calls)
     h_psi:calbec :      0.16s CPU      0.17s WALL (     615 calls)
     vloc_psi     :      3.60s CPU      3.86s WALL (     615 calls)
     add_vuspsi   :      0.16s CPU      0.17s WALL (     615 calls)

     General routines
     calbec       :      0.15s CPU      0.17s WALL (     615 calls)
     fft          :      0.00s CPU      0.01s WALL (      13 calls)
     fftw         :      3.34s CPU      3.58s WALL (   55600 calls)
 
     Parallel routines
     fft_scatt_xy :      0.34s CPU      0.37s WALL (   55613 calls)
     fft_scatt_yz :      1.90s CPU      2.04s WALL (   55613 calls)
 
     PWSCF        :     53.56s CPU   1m19.42s WALL

 
   This run was terminated on:  13: 2: 7   3May2021            

=------------------------------------------------------------------------------=
   JOB DONE.
=------------------------------------------------------------------------------=
