
     Program PWSCF v.6.4.1 starts on  3May2021 at 12:55:53 

     This program is part of the open-source Quantum ESPRESSO suite
     for quantum simulation of materials; please cite
         "P. Giannozzi et al., J. Phys.:Condens. Matter 21 395502 (2009);
         "P. Giannozzi et al., J. Phys.:Condens. Matter 29 465901 (2017);
          URL http://www.quantum-espresso.org", 
     in publications or presentations arising from this work. More details at
     http://www.quantum-espresso.org/quote

     Parallel version (MPI & OpenMP), running on     320 processor cores
     Number of MPI processes:               320
     Threads/MPI process:                     1

     MPI processes distributed on    10 nodes
     K-points division:     npool     =      10
     R & G space division:  proc/nbgrp/npool/nimage =      32
     Waiting for input...
     Reading input from standard input

     Current dimensions of program PWSCF are:
     Max number of different atomic species (ntypx) = 10
     Max number of k-points (npk) =  40000
     Max angular momentum in pseudopotentials (lmaxx) =  3

     Atomic positions and unit cell read from directory:
     ./MoS2.save/
 
     Message from routine readpp:
     file ./MoS2.save/Mo_FR.UPF not found
     Message from routine readpp:
     file ./MoS2.save/S_FR.UPF not found

     Subspace diagonalization in iterative solution of the eigenvalue problem:
     one sub-group per band group will be used
     scalapack distributed-memory algorithm (size of sub-group:  4*  4 procs)

     Message from routine setup:
     DEPRECATED: symmetry with ibrav=0, use correct ibrav instead
 
     Parallelization info
     --------------------
     sticks:   dense  smooth     PW     G-vecs:    dense   smooth      PW
     Min          12      12      5                  980      980     261
     Max          13      13      6                 1004     1004     278
     Sum         385     385    163                31921    31921    8617
 


     bravais-lattice index     =            0
     lattice parameter (alat)  =       5.9867  a.u.
     unit-cell volume          =     938.4712 (a.u.)^3
     number of atoms/cell      =            3
     number of atomic types    =            2
     number of electrons       =        26.00
     number of Kohn-Sham states=           30
     kinetic-energy cutoff     =      40.0000  Ry
     charge density cutoff     =     160.0000  Ry
     Exchange-correlation      = PBE ( 1  4  3  4 0 0)
     Non magnetic calculation with spin-orbit


     celldm(1)=   5.986676  celldm(2)=   0.000000  celldm(3)=   0.000000
     celldm(4)=   0.000000  celldm(5)=   0.000000  celldm(6)=   0.000000

     crystal axes: (cart. coord. in units of alat)
               a(1) = (   1.000000   0.000000   0.000000 )  
               a(2) = (  -0.500000   0.866025   0.000000 )  
               a(3) = (   0.000000   0.000000   5.050485 )  

     reciprocal axes: (cart. coord. in units 2 pi/alat)
               b(1) = (  1.000000  0.577350  0.000000 )  
               b(2) = (  0.000000  1.154701  0.000000 )  
               b(3) = (  0.000000  0.000000  0.198001 )  


     PseudoPot. # 1 for Mo read from file:
     ../../../pseudo/oncvpsp/Mo_FR.UPF
     MD5 check sum: 091442f9a55d305e44af61b3fb26c716
     Pseudo is Norm-conserving, Zval = 14.0
     Generated using ONCVPSP code by D. R. Hamann
     Using radial grid of 1526 points, 10 beta functions with: 
                l(1) =   0
                l(2) =   0
                l(3) =   1
                l(4) =   1
                l(5) =   1
                l(6) =   1
                l(7) =   2
                l(8) =   2
                l(9) =   2
               l(10) =   2

     PseudoPot. # 2 for S  read from file:
     ../../../pseudo/oncvpsp/S_FR.UPF
     MD5 check sum: 1ec1d62f6016a84edfc3cbeb70a0ad55
     Pseudo is Norm-conserving, Zval =  6.0
     Generated using ONCVPSP code by D. R. Hamann
     Using radial grid of 1146 points,  6 beta functions with: 
                l(1) =   0
                l(2) =   0
                l(3) =   1
                l(4) =   1
                l(5) =   1
                l(6) =   1

     atomic species   valence    mass     pseudopotential
        Mo            14.00     1.00000     Mo( 1.00)
        S              6.00     1.00000     S ( 1.00)

     12 Sym. Ops. (no inversion) found



   Cartesian axes

     site n.     atom                  positions (alat units)
         1           Mo  tau(   1) = (  -0.0000000   0.5773503   0.0000000  )
         2           S   tau(   2) = (   0.5000000   0.2886751  -0.4944526  )
         3           S   tau(   3) = (   0.5000000   0.2886751   0.4944526  )

     number of k points=    78
                       cart. coord. in units 2pi/alat
        k(    1) = (   0.0010000   0.0005774   0.0000000), wk =   0.0069444
        k(    2) = (   0.0010000   0.0968024   0.0000000), wk =   0.0138889
        k(    3) = (   0.0010000   0.1930274   0.0000000), wk =   0.0138889
        k(    4) = (   0.0010000   0.2892525   0.0000000), wk =   0.0138889
        k(    5) = (   0.0010000   0.3854775   0.0000000), wk =   0.0138889
        k(    6) = (   0.0010000   0.4817026   0.0000000), wk =   0.0138889
        k(    7) = (   0.0010000   0.5779276   0.0000000), wk =   0.0138889
        k(    8) = (   0.0010000   0.6741527   0.0000000), wk =   0.0138889
        k(    9) = (   0.0010000   0.7703777   0.0000000), wk =   0.0138889
        k(   10) = (   0.0010000   0.8666028   0.0000000), wk =   0.0138889
        k(   11) = (   0.0010000   0.9628278   0.0000000), wk =   0.0138889
        k(   12) = (   0.0010000   1.0590528   0.0000000), wk =   0.0138889
        k(   13) = (   0.0843333   0.0486899   0.0000000), wk =   0.0069444
        k(   14) = (   0.0843333   0.1449149   0.0000000), wk =   0.0138889
        k(   15) = (   0.0843333   0.2411400   0.0000000), wk =   0.0138889
        k(   16) = (   0.0843333   0.3373650   0.0000000), wk =   0.0138889
        k(   17) = (   0.0843333   0.4335901   0.0000000), wk =   0.0138889
        k(   18) = (   0.0843333   0.5298151   0.0000000), wk =   0.0138889
        k(   19) = (   0.0843333   0.6260401   0.0000000), wk =   0.0138889
        k(   20) = (   0.0843333   0.7222652   0.0000000), wk =   0.0138889
        k(   21) = (   0.0843333   0.8184902   0.0000000), wk =   0.0138889
        k(   22) = (   0.0843333   0.9147153   0.0000000), wk =   0.0138889
        k(   23) = (   0.1676667   0.0968024   0.0000000), wk =   0.0069444
        k(   24) = (   0.1676667   0.1930274   0.0000000), wk =   0.0138889
        k(   25) = (   0.1676667   0.2892525   0.0000000), wk =   0.0138889
        k(   26) = (   0.1676667   0.3854775   0.0000000), wk =   0.0138889
        k(   27) = (   0.1676667   0.4817026   0.0000000), wk =   0.0138889
        k(   28) = (   0.1676667   0.5779276   0.0000000), wk =   0.0138889
        k(   29) = (   0.1676667   0.6741527   0.0000000), wk =   0.0138889
        k(   30) = (   0.1676667   0.7703777   0.0000000), wk =   0.0138889
        k(   31) = (   0.2510000   0.1449149   0.0000000), wk =   0.0069444
        k(   32) = (   0.2510000   0.2411400   0.0000000), wk =   0.0138889
        k(   33) = (   0.2510000   0.3373650   0.0000000), wk =   0.0138889
        k(   34) = (   0.2510000   0.4335901   0.0000000), wk =   0.0138889
        k(   35) = (   0.2510000   0.5298151   0.0000000), wk =   0.0138889
        k(   36) = (   0.2510000   0.6260401   0.0000000), wk =   0.0138889
        k(   37) = (   0.3343333   0.1930274   0.0000000), wk =   0.0069444
        k(   38) = (   0.3343333   0.2892525   0.0000000), wk =   0.0138889
        k(   39) = (   0.3343333   0.3854775   0.0000000), wk =   0.0138889
        k(   40) = (   0.3343333   0.4817026   0.0000000), wk =   0.0138889
        k(   41) = (   0.3343333   0.5779276   0.0000000), wk =   0.0138889
        k(   42) = (   0.4176667   0.2411400   0.0000000), wk =   0.0069444
        k(   43) = (   0.4176667   0.3373650   0.0000000), wk =   0.0138889
        k(   44) = (   0.4176667   0.4335901   0.0000000), wk =   0.0138889
        k(   45) = (   0.4176667   0.5298151   0.0000000), wk =   0.0138889
        k(   46) = (   0.5010000   0.2892525   0.0000000), wk =   0.0069444
        k(   47) = (   0.5010000   0.3854775   0.0000000), wk =   0.0138889
        k(   48) = (   0.5010000   0.4817026   0.0000000), wk =   0.0138889
        k(   49) = (   0.5010000   0.5779276   0.0000000), wk =   0.0138889
        k(   50) = (   0.5843333   0.3373650   0.0000000), wk =   0.0069444
        k(   51) = (   0.5843333   0.4335901   0.0000000), wk =   0.0138889
        k(   52) = (   0.5843333   0.5298151   0.0000000), wk =   0.0138889
        k(   53) = (   0.6676667   0.3854775   0.0000000), wk =   0.0069444
        k(   54) = (   0.6676667   0.4817026   0.0000000), wk =   0.0138889
        k(   55) = (   0.6676667   0.5779276   0.0000000), wk =   0.0138889
        k(   56) = (   0.7510000   0.4335901   0.0000000), wk =   0.0069444
        k(   57) = (   0.7510000   0.5298151   0.0000000), wk =   0.0138889
        k(   58) = (   0.7510000   1.0109403   0.0000000), wk =   0.0138889
        k(   59) = (   0.7510000   1.1071654   0.0000000), wk =   0.0138889
        k(   60) = (   0.7510000   1.2033904   0.0000000), wk =   0.0138889
        k(   61) = (   0.8343333   0.4817026   0.0000000), wk =   0.0069444
        k(   62) = (   0.8343333   0.5779276   0.0000000), wk =   0.0138889
        k(   63) = (   0.8343333   0.8666028   0.0000000), wk =   0.0138889
        k(   64) = (   0.8343333   0.9628278   0.0000000), wk =   0.0138889
        k(   65) = (   0.8343333   1.0590528   0.0000000), wk =   0.0138889
        k(   66) = (   0.8343333   1.1552779   0.0000000), wk =   0.0138889
        k(   67) = (   0.8343333   1.2515029   0.0000000), wk =   0.0138889
        k(   68) = (   0.8343333   1.3477280   0.0000000), wk =   0.0138889
        k(   69) = (   0.9176667   0.5298151   0.0000000), wk =   0.0069444
        k(   70) = (   0.9176667   0.7222652   0.0000000), wk =   0.0138889
        k(   71) = (   0.9176667   0.8184902   0.0000000), wk =   0.0138889
        k(   72) = (   0.9176667   0.9147153   0.0000000), wk =   0.0138889
        k(   73) = (   0.9176667   1.0109403   0.0000000), wk =   0.0138889
        k(   74) = (   0.9176667   1.1071654   0.0000000), wk =   0.0138889
        k(   75) = (   0.9176667   1.2033904   0.0000000), wk =   0.0138889
        k(   76) = (   0.9176667   1.2996155   0.0000000), wk =   0.0138889
        k(   77) = (   0.9176667   1.3958405   0.0000000), wk =   0.0138889
        k(   78) = (   0.9176667   1.4920655   0.0000000), wk =   0.0138889

     Dense  grid:    31921 G-vectors     FFT dimensions: (  25,  25, 125)

     Estimated max dynamical RAM per process >       7.94 MB

     Estimated total dynamical RAM >       2.48 GB
 ----2D----2D----2D----2D----2D----2D----2D----2D----2D----2D----2D----2D
  The code is running with the 2D cutoff
  Please refer to:
  Sohier, T., Calandra, M., & Mauri, F. (2017), 
  Density functional perturbation theory for gated two-dimensional heterostructu
 res:
  Theoretical developments and application to flexural phonons in graphene.
  Physical Review B, 96(7), 75448. https://doi.org/10.1103/PhysRevB.96.075448
 ----2D----2D----2D----2D----2D----2D----2D----2D----2D----2D----2D----2D

     The potential is recalculated from file :
     ./MoS2.save/charge-density

     Starting wfcs are   36 randomized atomic wfcs

     Band Structure Calculation
     Davidson diagonalization with overlap

     ethr =  3.85E-13,  avg # of iterations = 43.8

     total cpu time spent up to now is        5.7 secs

     End of band structure calculation

          k = 0.0010 0.0006 0.0000 (  3941 PWs)   bands (ev):

   -66.7334 -66.7334 -42.4733 -42.4733 -40.0459 -40.0459 -39.8877 -39.8877
   -20.0517 -20.0517 -18.7476 -18.7476 -11.5646 -11.5646  -8.5456  -8.5456
    -8.4804  -8.4804  -7.7329  -7.7329  -7.4311  -7.4311  -7.3458  -7.3458
    -5.9546  -5.9546  -3.1456  -3.1456  -3.0658  -3.0658

          k = 0.0010 0.0968 0.0000 (  3957 PWs)   bands (ev):

   -66.7307 -66.7307 -42.4805 -42.4805 -40.0490 -40.0490 -39.9054 -39.9054
   -19.9463 -19.9463 -18.7043 -18.7043 -11.4440 -11.4440  -8.7502  -8.7499
    -8.4017  -8.4015  -8.2036  -8.2035  -7.5576  -7.5573  -7.0801  -7.0797
    -6.0039  -6.0039  -3.2515  -3.2509  -3.1576  -3.1574

          k = 0.0010 0.1930 0.0000 (  3983 PWs)   bands (ev):

   -66.7234 -66.7234 -42.5005 -42.5005 -40.0616 -40.0616 -39.9482 -39.9481
   -19.6492 -19.6491 -18.5820 -18.5820 -11.1440 -11.1439  -9.2803  -9.2802
    -8.8556  -8.8555  -8.0979  -8.0975  -7.9470  -7.9468  -7.0053  -7.0048
    -6.2318  -6.2317  -3.6141  -3.6140  -3.3006  -3.3003

          k = 0.0010 0.2893 0.0000 (  3986 PWs)   bands (ev):

   -66.7134 -66.7134 -42.5291 -42.5290 -40.0948 -40.0948 -39.9876 -39.9875
   -19.2101 -19.2100 -18.4026 -18.4026 -10.9325 -10.9323  -9.7314  -9.7314
    -9.5176  -9.5175  -8.3897  -8.3897  -7.6719  -7.6712  -7.2601  -7.2597
    -6.6575  -6.6569  -3.7480  -3.7471  -3.5284  -3.5278

          k = 0.0010 0.3855 0.0000 (  4006 PWs)   bands (ev):

   -66.7034 -66.7034 -42.5589 -42.5588 -40.1467 -40.1466 -40.0051 -40.0051
   -18.7177 -18.7175 -18.2056 -18.2056 -11.1848 -11.1847 -10.1345 -10.1344
    -9.8228  -9.8227  -8.7586  -8.7585  -7.5740  -7.5739  -7.2459  -7.2441
    -6.8954  -6.8933  -3.6855  -3.6836  -3.5535  -3.5522

          k = 0.0010 0.4817 0.0000 (  4002 PWs)   bands (ev):

   -66.6961 -66.6961 -42.5816 -42.5815 -40.1899 -40.1898 -40.0108 -40.0108
   -18.3084 -18.3081 -18.0475 -18.0475 -11.5659 -11.5658 -10.5826 -10.5825
    -9.9277  -9.9277  -8.9975  -8.9974  -7.7648  -7.7647  -6.9617  -6.9582
    -6.7136  -6.7098  -3.6689  -3.6689  -3.2750  -3.2744

          k = 0.0010 0.5779 0.0000 (  4000 PWs)   bands (ev):

   -66.6935 -66.6935 -42.5900 -42.5899 -40.2060 -40.2058 -40.0121 -40.0120
   -18.1454 -18.1451 -17.9867 -17.9867 -11.7272 -11.7271 -10.7472 -10.7472
   -10.0058 -10.0056  -9.0790  -9.0789  -7.8260  -7.8259  -6.8625  -6.8593
    -6.5478  -6.5443  -3.6349  -3.6343  -3.1169  -3.1155

          k = 0.0010 0.6742 0.0000 (  4002 PWs)   bands (ev):

   -66.6962 -66.6962 -42.5814 -42.5813 -40.1895 -40.1894 -40.0108 -40.0107
   -18.3121 -18.3119 -18.0490 -18.0489 -11.5622 -11.5621 -10.5787 -10.5786
    -9.9261  -9.9261  -8.9955  -8.9954  -7.7633  -7.7632  -6.9641  -6.9606
    -6.7169  -6.7130  -3.6695  -3.6695  -3.2783  -3.2776

          k = 0.0010 0.7704 0.0000 (  4006 PWs)   bands (ev):

   -66.7036 -66.7036 -42.5586 -42.5585 -40.1461 -40.1460 -40.0050 -40.0050
   -18.7235 -18.7233 -18.2079 -18.2079 -11.1800 -11.1799 -10.1279 -10.1278
    -9.8222  -9.8221  -8.7549  -8.7548  -7.5709  -7.5708  -7.2503  -7.2484
    -6.8954  -6.8933  -3.6852  -3.6833  -3.5564  -3.5550

          k = 0.0010 0.8666 0.0000 (  3986 PWs)   bands (ev):

   -66.7136 -66.7136 -42.5287 -42.5286 -40.0943 -40.0943 -39.9872 -39.9872
   -19.2159 -19.2158 -18.4050 -18.4050 -10.9325 -10.9323  -9.7283  -9.7283
    -9.5098  -9.5097  -8.3847  -8.3847  -7.6772  -7.6764  -7.2563  -7.2558
    -6.6525  -6.6519  -3.7485  -3.7477  -3.5258  -3.5253

          k = 0.0010 0.9628 0.0000 (  3983 PWs)   bands (ev):

   -66.7235 -66.7235 -42.5002 -42.5002 -40.0613 -40.0613 -39.9476 -39.9476
   -19.6537 -19.6537 -18.5839 -18.5839 -11.1479 -11.1479  -9.2735  -9.2734
    -8.8476  -8.8476  -8.1023  -8.1019  -7.9419  -7.9417  -7.0037  -7.0032
    -6.2276  -6.2274  -3.6101  -3.6101  -3.3012  -3.3008

          k = 0.0010 1.0591 0.0000 (  3957 PWs)   bands (ev):

   -66.7308 -66.7308 -42.4803 -42.4803 -40.0489 -40.0489 -39.9050 -39.9050
   -19.9488 -19.9488 -18.7053 -18.7053 -11.4468 -11.4468  -8.7451  -8.7448
    -8.4041  -8.4038  -8.1963  -8.1962  -7.5539  -7.5536  -7.0834  -7.0830
    -6.0026  -6.0025  -3.2490  -3.2484  -3.1523  -3.1521

          k = 0.0843 0.0487 0.0000 (  3957 PWs)   bands (ev):

   -66.7307 -66.7307 -42.4806 -42.4806 -40.0491 -40.0491 -39.9056 -39.9056
   -19.9451 -19.9451 -18.7037 -18.7037 -11.4426 -11.4426  -8.7526  -8.7526
    -8.4004  -8.4004  -8.2072  -8.2072  -7.5592  -7.5592  -7.0783  -7.0783
    -6.0046  -6.0046  -3.2524  -3.2524  -3.1601  -3.1601

          k = 0.0843 0.1449 0.0000 (  3968 PWs)   bands (ev):

   -66.7257 -66.7257 -42.4948 -42.4936 -40.0570 -40.0561 -39.9374 -39.9348
   -19.7449 -19.7427 -18.6209 -18.6207 -11.2302 -11.2273  -9.1314  -9.1198
    -8.6410  -8.6403  -8.2126  -8.1869  -7.9515  -7.9454  -6.9065  -6.8809
    -6.1466  -6.1414  -3.5210  -3.5086  -3.4092  -3.3558

          k = 0.0843 0.2411 0.0000 (  3989 PWs)   bands (ev):

   -66.7171 -66.7171 -42.5201 -42.5168 -40.0783 -40.0774 -39.9816 -39.9759
   -19.3780 -19.3717 -18.4693 -18.4688 -10.9466 -10.9364  -9.6013  -9.5976
    -9.1890  -9.1790  -8.5109  -8.5060  -7.9067  -7.8668  -6.9437  -6.9143
    -6.4956  -6.4695  -3.8277  -3.8003  -3.4330  -3.4235

          k = 0.0843 0.3374 0.0000 (  4008 PWs)   bands (ev):

   -66.7071 -66.7071 -42.5504 -42.5446 -40.1228 -40.1193 -40.0089 -40.0041
   -18.9118 -18.8996 -18.2782 -18.2773 -10.9790 -10.9656  -9.8496  -9.8389
    -9.7730  -9.7670  -8.8817  -8.8721  -7.6842  -7.6176  -7.2408  -7.2171
    -6.8025  -6.7358  -3.9026  -3.8403  -3.4779  -3.4517

          k = 0.0843 0.4336 0.0000 (  4017 PWs)   bands (ev):

   -66.6984 -66.6984 -42.5777 -42.5697 -40.1736 -40.1648 -40.0188 -40.0162
   -18.4561 -18.4373 -18.0953 -18.0940 -11.3214 -11.3211 -10.4403 -10.4327
    -9.8127  -9.8126  -9.0467  -9.0373  -7.6110  -7.5817  -7.5242  -7.4941
    -6.6968  -6.6062  -3.7413  -3.7055  -3.3491  -3.3375

          k = 0.0843 0.5298 0.0000 (  4025 PWs)   bands (ev):

   -66.6934 -66.6934 -42.5938 -42.5845 -40.2045 -40.1929 -40.0218 -40.0203
   -18.1625 -18.1389 -17.9809 -17.9794 -11.5913 -11.5795 -10.7856 -10.7800
    -9.9484  -9.9405  -9.0983  -9.0891  -7.7845  -7.7800  -7.4389  -7.3684
    -6.4594  -6.3582  -3.6434  -3.6035  -3.1651  -3.0682

          k = 0.0843 0.6260 0.0000 (  4025 PWs)   bands (ev):

   -66.6935 -66.6935 -42.5937 -42.5844 -40.2043 -40.1927 -40.0218 -40.0203
   -18.1645 -18.1409 -17.9816 -17.9801 -11.5895 -11.5778 -10.7834 -10.7778
    -9.9472  -9.9394  -9.0980  -9.0889  -7.7832  -7.7787  -7.4398  -7.3694
    -6.4615  -6.3603  -3.6435  -3.6041  -3.1671  -3.0708

          k = 0.0843 0.7223 0.0000 (  4017 PWs)   bands (ev):

   -66.6985 -66.6985 -42.5775 -42.5694 -40.1731 -40.1643 -40.0187 -40.0161
   -18.4609 -18.4422 -18.0972 -18.0959 -11.3172 -11.3168 -10.4343 -10.4267
    -9.8113  -9.8112  -9.0455  -9.0362  -7.6104  -7.5785  -7.5229  -7.4955
    -6.6996  -6.6093  -3.7439  -3.7071  -3.3508  -3.3403

          k = 0.0843 0.8185 0.0000 (  4006 PWs)   bands (ev):

   -66.7072 -66.7072 -42.5501 -42.5443 -40.1222 -40.1187 -40.0087 -40.0039
   -18.9176 -18.9055 -18.2805 -18.2796 -10.9758 -10.9623  -9.8422  -9.8314
    -9.7725  -9.7664  -8.8787  -8.8691  -7.6856  -7.6193  -7.2366  -7.2128
    -6.8012  -6.7350  -3.9033  -3.8412  -3.4785  -3.4524

          k = 0.0843 0.9147 0.0000 (  3991 PWs)   bands (ev):

   -66.7172 -66.7172 -42.5197 -42.5164 -40.0779 -40.0770 -39.9811 -39.9755
   -19.3832 -19.3769 -18.4714 -18.4709 -10.9491 -10.9390  -9.5968  -9.5929
    -9.1817  -9.1717  -8.5049  -8.5001  -7.9103  -7.8707  -6.9413  -6.9119
    -6.4906  -6.4649  -3.8251  -3.7983  -3.4314  -3.4221

          k = 0.1677 0.0968 0.0000 (  3983 PWs)   bands (ev):

   -66.7234 -66.7234 -42.5007 -42.5007 -40.0617 -40.0617 -39.9484 -39.9484
   -19.6469 -19.6469 -18.5811 -18.5811 -11.1420 -11.1420  -9.2836  -9.2836
    -8.8595  -8.8595  -8.0955  -8.0955  -7.9494  -7.9494  -7.0058  -7.0058
    -6.2339  -6.2339  -3.6160  -3.6160  -3.3003  -3.3003

          k = 0.1677 0.1930 0.0000 (  3989 PWs)   bands (ev):

   -66.7170 -66.7170 -42.5201 -42.5168 -40.0784 -40.0775 -39.9816 -39.9760
   -19.3770 -19.3707 -18.4688 -18.4684 -10.9464 -10.9363  -9.6024  -9.5988
    -9.1925  -9.1826  -8.5078  -8.5030  -7.9048  -7.8652  -6.9471  -6.9180
    -6.4968  -6.4708  -3.8271  -3.7998  -3.4335  -3.4239

          k = 0.1677 0.2893 0.0000 (  4006 PWs)   bands (ev):

   -66.7084 -66.7084 -42.5472 -42.5393 -40.1102 -40.1064 -40.0144 -40.0069
   -18.9803 -18.9641 -18.3030 -18.3018 -10.8781 -10.8548  -9.7424  -9.7328
    -9.6257  -9.5958  -9.1370  -9.1083  -7.9086  -7.8327  -6.9889  -6.9540
    -6.7454  -6.6727  -4.0167  -3.9467  -3.4214  -3.4037

          k = 0.1677 0.3855 0.0000 (  4004 PWs)   bands (ev):

   -66.6998 -66.6998 -42.5749 -42.5623 -40.1554 -40.1413 -40.0332 -40.0294
   -18.5413 -18.5127 -18.1188 -18.1167 -11.0645 -11.0520 -10.3197 -10.3037
    -9.6464  -9.6361  -9.2407  -9.2202  -8.1947  -8.1223  -7.2884  -7.2671
    -6.7032  -6.6067  -3.8636  -3.7956  -3.3124  -3.3083

          k = 0.1677 0.4817 0.0000 (  4030 PWs)   bands (ev):

   -66.6934 -66.6934 -42.5956 -42.5794 -40.1928 -40.1702 -40.0417 -40.0415
   -18.1838 -18.1436 -17.9693 -17.9666 -11.2619 -11.2498 -10.8501 -10.8403
    -9.7583  -9.7544  -9.1522  -9.1343  -8.3161  -8.2517  -7.6572  -7.6465
    -6.4573  -6.3484  -3.6905  -3.6634  -3.1325  -3.0158

          k = 0.1677 0.5779 0.0000 (  4050 PWs)   bands (ev):

   -66.6911 -66.6911 -42.6031 -42.5857 -40.2068 -40.1812 -40.0452 -40.0441
   -18.0440 -17.9990 -17.9113 -17.9086 -11.3401 -11.3140 -11.0411 -11.0336
    -9.8884  -9.8755  -9.0780  -9.0593  -8.3109  -8.2494  -7.8331  -7.8276
    -6.2840  -6.1678  -3.7647  -3.7170  -2.9110  -2.7611

          k = 0.1677 0.6742 0.0000 (  4030 PWs)   bands (ev):

   -66.6935 -66.6935 -42.5954 -42.5793 -40.1925 -40.1700 -40.0416 -40.0414
   -18.1871 -18.1470 -17.9706 -17.9680 -11.2600 -11.2482 -10.8455 -10.8357
    -9.7558  -9.7520  -9.1536  -9.1357  -8.3159  -8.2515  -7.6533  -7.6426
    -6.4607  -6.3519  -3.6897  -3.6634  -3.1364  -3.0207

          k = 0.1677 0.7704 0.0000 (  4002 PWs)   bands (ev):

   -66.6998 -66.6998 -42.5746 -42.5621 -40.1549 -40.1409 -40.0331 -40.0292
   -18.5464 -18.5179 -18.1209 -18.1189 -11.0618 -11.0491 -10.3118 -10.2957
    -9.6469  -9.6364  -9.2411  -9.2205  -8.1915  -8.1190  -7.2839  -7.2624
    -6.7053  -6.6089  -3.8672  -3.7986  -3.3134  -3.3101

          k = 0.2510 0.1449 0.0000 (  3986 PWs)   bands (ev):

   -66.7134 -66.7134 -42.5292 -42.5292 -40.0951 -40.0951 -39.9877 -39.9877
   -19.2071 -19.2071 -18.4015 -18.4015 -10.9325 -10.9325  -9.7329  -9.7329
    -9.5215  -9.5215  -8.3921  -8.3921  -7.6689  -7.6689  -7.2619  -7.2619
    -6.6597  -6.6597  -3.7473  -3.7473  -3.5293  -3.5293

          k = 0.2510 0.2411 0.0000 (  4006 PWs)   bands (ev):

   -66.7070 -66.7070 -42.5505 -42.5447 -40.1231 -40.1195 -40.0088 -40.0041
   -18.9101 -18.8981 -18.2776 -18.2767 -10.9812 -10.9680  -9.8532  -9.8425
    -9.7739  -9.7679  -8.8779  -8.8685  -7.6794  -7.6129  -7.2458  -7.2223
    -6.8038  -6.7374  -3.9001  -3.8379  -3.4793  -3.4530

          k = 0.2510 0.3374 0.0000 (  4006 PWs)   bands (ev):

   -66.6997 -66.6997 -42.5750 -42.5624 -40.1556 -40.1415 -40.0331 -40.0293
   -18.5408 -18.5122 -18.1187 -18.1166 -11.0665 -11.0541 -10.3207 -10.3048
    -9.6480  -9.6378  -9.2390  -9.2186  -8.1897  -8.1174  -7.2908  -7.2694
    -6.7030  -6.6065  -3.8627  -3.7949  -3.3127  -3.3086

          k = 0.2510 0.4336 0.0000 (  4048 PWs)   bands (ev):

   -66.6934 -66.6934 -42.5959 -42.5774 -40.1850 -40.1563 -40.0553 -40.0528
   -18.1933 -18.1473 -17.9636 -17.9605 -11.0608 -11.0562 -10.8796 -10.8680
    -9.5278  -9.5210  -9.1875  -9.1684  -8.8683  -8.8136  -7.5802  -7.5707
    -6.4821  -6.3720  -3.7279  -3.7140  -3.1022  -2.9874

          k = 0.2510 0.5298 0.0000 (  4048 PWs)   bands (ev):

   -66.6898 -66.6898 -42.6079 -42.5859 -40.2028 -40.1633 -40.0719 -40.0633
   -17.9789 -17.9213 -17.8649 -17.8617 -11.2247 -11.2160 -10.9409 -10.9123
    -9.7550  -9.7459  -9.1677  -9.1248  -8.9886  -8.9488  -7.9159  -7.9106
    -6.1801  -6.0517  -3.9704  -3.9500  -2.7653  -2.7612

          k = 0.2510 0.6260 0.0000 (  4050 PWs)   bands (ev):

   -66.6898 -66.6898 -42.6079 -42.5858 -40.2027 -40.1632 -40.0718 -40.0633
   -17.9802 -17.9227 -17.8656 -17.8623 -11.2225 -11.2137 -10.9424 -10.9141
    -9.7515  -9.7424  -9.1672  -9.1240  -8.9905  -8.9508  -7.9130  -7.9078
    -6.1828  -6.0546  -3.9678  -3.9473  -2.7654  -2.7622

          k = 0.3343 0.1930 0.0000 (  4008 PWs)   bands (ev):

   -66.7034 -66.7034 -42.5590 -42.5590 -40.1470 -40.1470 -40.0052 -40.0052
   -18.7148 -18.7148 -18.2045 -18.2045 -11.1872 -11.1872 -10.1378 -10.1378
    -9.8231  -9.8231  -8.7604  -8.7604  -7.5754  -7.5754  -7.2428  -7.2428
    -6.8944  -6.8944  -3.6847  -3.6847  -3.5515  -3.5515

          k = 0.3343 0.2893 0.0000 (  4017 PWs)   bands (ev):

   -66.6984 -66.6984 -42.5778 -42.5698 -40.1738 -40.1651 -40.0186 -40.0160
   -18.4546 -18.4360 -18.0949 -18.0935 -11.3249 -11.3248 -10.4419 -10.4344
    -9.8146  -9.8145  -9.0446  -9.0354  -7.6084  -7.5846  -7.5218  -7.4862
    -6.6971  -6.6067  -3.7397  -3.7045  -3.3493  -3.3375

          k = 0.3343 0.3855 0.0000 (  4030 PWs)   bands (ev):

   -66.6934 -66.6934 -42.5955 -42.5795 -40.1929 -40.1705 -40.0414 -40.0412
   -18.1836 -18.1436 -17.9694 -17.9668 -11.2660 -11.2538 -10.8494 -10.8397
    -9.7615  -9.7574  -9.1515  -9.1337  -8.3060  -8.2414  -7.6587  -7.6480
    -6.4569  -6.3480  -3.6898  -3.6624  -3.1332  -3.0165

          k = 0.3343 0.4817 0.0000 (  4046 PWs)   bands (ev):

   -66.6898 -66.6898 -42.6079 -42.5859 -40.2029 -40.1634 -40.0717 -40.0632
   -17.9793 -17.9218 -17.8652 -17.8620 -11.2235 -11.2147 -10.9448 -10.9162
    -9.7569  -9.7484  -9.1602  -9.1164  -8.9893  -8.9494  -7.9152  -7.9100
    -6.1808  -6.0526  -3.9687  -3.9481  -2.7630  -2.7597

          k = 0.3343 0.5779 0.0000 (  4050 PWs)   bands (ev):

   -66.6885 -66.6885 -42.6123 -42.5880 -40.2056 -40.1558 -40.0880 -40.0722
   -17.9037 -17.8398 -17.8243 -17.8212 -11.3691 -11.3613 -10.5522 -10.5165
   -10.0390  -9.9807  -9.4835  -9.4653  -8.8387  -8.7884  -8.1140  -8.0906
    -6.0030  -5.8551  -4.1923  -4.1893  -2.8638  -2.8320

          k = 0.4177 0.2411 0.0000 (  4000 PWs)   bands (ev):

   -66.6961 -66.6961 -42.5816 -42.5816 -40.1900 -40.1900 -40.0108 -40.0108
   -18.3064 -18.3064 -18.0468 -18.0468 -11.5677 -11.5677 -10.5845 -10.5845
    -9.9285  -9.9285  -8.9984  -8.9984  -7.7655  -7.7655  -6.9587  -6.9587
    -6.7102  -6.7102  -3.6686  -3.6686  -3.2731  -3.2731

          k = 0.4177 0.3374 0.0000 (  4025 PWs)   bands (ev):

   -66.6935 -66.6934 -42.5938 -42.5846 -40.2046 -40.1931 -40.0216 -40.0201
   -18.1623 -18.1389 -17.9810 -17.9795 -11.5945 -11.5828 -10.7848 -10.7793
    -9.9498  -9.9420  -9.0978  -9.0888  -7.7855  -7.7810  -7.4293  -7.3586
    -6.4603  -6.3592  -3.6432  -3.6035  -3.1650  -3.0687

          k = 0.4177 0.4336 0.0000 (  4050 PWs)   bands (ev):

   -66.6912 -66.6912 -42.6030 -42.5857 -40.2069 -40.1814 -40.0449 -40.0438
   -18.0451 -18.0004 -17.9120 -17.9094 -11.3445 -11.3185 -11.0382 -11.0306
    -9.8895  -9.8766  -9.0790  -9.0603  -8.2999  -8.2380  -7.8321  -7.8265
    -6.2856  -6.1696  -3.7622  -3.7141  -2.9147  -2.7649

          k = 0.4177 0.5298 0.0000 (  4048 PWs)   bands (ev):

   -66.6898 -66.6898 -42.6078 -42.5857 -40.2026 -40.1633 -40.0715 -40.0631
   -17.9821 -17.9247 -17.8665 -17.8633 -11.2191 -11.2103 -10.9477 -10.9196
    -9.7500  -9.7414  -9.1592  -9.1149  -8.9930  -8.9532  -7.9093  -7.9044
    -6.1863  -6.0584  -3.9635  -3.9427  -2.7632  -2.7619

          k = 0.5010 0.2893 0.0000 (  4000 PWs)   bands (ev):

   -66.6935 -66.6935 -42.5900 -42.5900 -40.2059 -40.2059 -40.0120 -40.0120
   -18.1453 -18.1453 -17.9867 -17.9867 -11.7272 -11.7272 -10.7472 -10.7472
   -10.0057 -10.0057  -9.0790  -9.0790  -7.8260  -7.8260  -6.8608  -6.8608
    -6.5461  -6.5461  -3.6346  -3.6346  -3.1162  -3.1162

          k = 0.5010 0.3855 0.0000 (  4025 PWs)   bands (ev):

   -66.6935 -66.6935 -42.5936 -42.5844 -40.2042 -40.1927 -40.0216 -40.0201
   -18.1662 -18.1429 -17.9825 -17.9810 -11.5908 -11.5793 -10.7805 -10.7750
    -9.9475  -9.9398  -9.0973  -9.0883  -7.7829  -7.7783  -7.4312  -7.3606
    -6.4644  -6.3634  -3.6434  -3.6047  -3.1689  -3.0739

          k = 0.5010 0.4817 0.0000 (  4030 PWs)   bands (ev):

   -66.6935 -66.6935 -42.5952 -42.5792 -40.1923 -40.1700 -40.0413 -40.0411
   -18.1901 -18.1503 -17.9721 -17.9695 -11.2622 -11.2506 -10.8403 -10.8305
    -9.7565  -9.7528  -9.1543  -9.1365  -8.3057  -8.2410  -7.6511  -7.6402
    -6.4636  -6.3550  -3.6882  -3.6624  -3.1408  -3.0261

          k = 0.5010 0.5779 0.0000 (  4048 PWs)   bands (ev):

   -66.6935 -66.6935 -42.5955 -42.5771 -40.1844 -40.1561 -40.0548 -40.0525
   -18.2005 -18.1549 -17.9668 -17.9638 -11.0623 -11.0583 -10.8678 -10.8562
    -9.5277  -9.5208  -9.1915  -9.1722  -8.8547  -8.7992  -7.5716  -7.5617
    -6.4892  -6.3794  -3.7245  -3.7119  -3.1118  -2.9992

          k = 0.5843 0.3374 0.0000 (  4002 PWs)   bands (ev):

   -66.6962 -66.6962 -42.5813 -42.5813 -40.1893 -40.1893 -40.0107 -40.0107
   -18.3139 -18.3139 -18.0497 -18.0497 -11.5603 -11.5603 -10.5767 -10.5767
    -9.9253  -9.9253  -8.9944  -8.9944  -7.7625  -7.7625  -6.9635  -6.9635
    -6.7166  -6.7166  -3.6698  -3.6698  -3.2796  -3.2796

          k = 0.5843 0.4336 0.0000 (  4017 PWs)   bands (ev):

   -66.6986 -66.6986 -42.5772 -42.5693 -40.1728 -40.1642 -40.0185 -40.0158
   -18.4643 -18.4459 -18.0987 -18.0974 -11.3166 -11.3161 -10.4300 -10.4225
    -9.8118  -9.8117  -9.0422  -9.0330  -7.6066  -7.5782  -7.5199  -7.4891
    -6.7028  -6.6128  -3.7447  -3.7077  -3.3528  -3.3432

          k = 0.5843 0.5298 0.0000 (  4002 PWs)   bands (ev):

   -66.6999 -66.6999 -42.5744 -42.5619 -40.1545 -40.1407 -40.0328 -40.0289
   -18.5509 -18.5226 -18.1229 -18.1209 -11.0610 -11.0482 -10.3048 -10.2887
    -9.6489  -9.6385  -9.2397  -9.2191  -8.1835  -8.1109  -7.2817  -7.2601
    -6.7071  -6.6109  -3.8699  -3.8009  -3.3147  -3.3122

          k = 0.6677 0.3855 0.0000 (  4008 PWs)   bands (ev):

   -66.7036 -66.7036 -42.5584 -42.5584 -40.1457 -40.1457 -40.0049 -40.0049
   -18.7262 -18.7262 -18.2090 -18.2090 -11.1776 -11.1776 -10.1245 -10.1245
    -9.8219  -9.8219  -8.7529  -8.7529  -7.5694  -7.5694  -7.2514  -7.2514
    -6.8943  -6.8943  -3.6840  -3.6840  -3.5571  -3.5571

          k = 0.6677 0.4817 0.0000 (  4006 PWs)   bands (ev):

   -66.7073 -66.7073 -42.5498 -42.5441 -40.1218 -40.1184 -40.0084 -40.0037
   -18.9217 -18.9098 -18.2823 -18.2814 -10.9748 -10.9614  -9.8383  -9.8277
    -9.7727  -9.7666  -8.8718  -8.8624  -7.6823  -7.6165  -7.2375  -7.2138
    -6.8012  -6.7357  -3.9015  -3.8397  -3.4805  -3.4542

          k = 0.6677 0.5779 0.0000 (  4006 PWs)   bands (ev):

   -66.7086 -66.7086 -42.5466 -42.5388 -40.1092 -40.1056 -40.0138 -40.0063
   -18.9908 -18.9748 -18.3073 -18.3062 -10.8760 -10.8528  -9.7432  -9.7337
    -9.6105  -9.5806  -9.1292  -9.1004  -7.9040  -7.8286  -6.9844  -6.9493
    -6.7425  -6.6708  -4.0156  -3.9463  -3.4235  -3.4059

          k = 0.7510 0.4336 0.0000 (  3986 PWs)   bands (ev):

   -66.7136 -66.7136 -42.5285 -42.5285 -40.0940 -40.0940 -39.9870 -39.9870
   -19.2188 -19.2188 -18.4062 -18.4062 -10.9324 -10.9324  -9.7267  -9.7267
    -9.5059  -9.5059  -8.3821  -8.3821  -7.6794  -7.6794  -7.2542  -7.2542
    -6.6497  -6.6497  -3.7483  -3.7483  -3.5243  -3.5243

          k = 0.7510 0.5298 0.0000 (  3993 PWs)   bands (ev):

   -66.7173 -66.7173 -42.5194 -42.5162 -40.0776 -40.0767 -39.9807 -39.9751
   -19.3873 -19.3811 -18.4731 -18.4726 -10.9514 -10.9415  -9.5932  -9.5893
    -9.1778  -9.1680  -8.4958  -8.4913  -7.9123  -7.8731  -6.9423  -6.9131
    -6.4868  -6.4616  -3.8220  -3.7958  -3.4302  -3.4210

          k = 0.7510 1.0109 0.0000 (  4048 PWs)   bands (ev):

   -66.6935 -66.6935 -42.5957 -42.5772 -40.1847 -40.1562 -40.0550 -40.0526
   -18.1969 -18.1510 -17.9652 -17.9621 -11.0616 -11.0573 -10.8737 -10.8621
    -9.5278  -9.5209  -9.1895  -9.1703  -8.8614  -8.8063  -7.5759  -7.5663
    -6.4856  -6.3757  -3.7262  -3.7129  -3.1071  -2.9933

          k = 0.7510 1.1072 0.0000 (  4046 PWs)   bands (ev):

   -66.6898 -66.6898 -42.6078 -42.5858 -40.2028 -40.1636 -40.0714 -40.0630
   -17.9810 -17.9237 -17.8662 -17.8629 -11.2201 -11.2113 -10.9501 -10.9217
    -9.7555  -9.7475  -9.1521  -9.1072  -8.9919  -8.9517  -7.9116  -7.9066
    -6.1843  -6.0563  -3.9645  -3.9435  -2.7607  -2.7594

          k = 0.7510 1.2034 0.0000 (  4046 PWs)   bands (ev):

   -66.6898 -66.6898 -42.6077 -42.5858 -40.2027 -40.1635 -40.0713 -40.0629
   -17.9824 -17.9252 -17.8668 -17.8636 -11.2179 -11.2091 -10.9515 -10.9233
    -9.7521  -9.7441  -9.1516  -9.1065  -8.9937  -8.9536  -7.9087  -7.9039
    -6.1870  -6.0592  -3.9619  -3.9408  -2.7609  -2.7605

          k = 0.8343 0.4817 0.0000 (  3983 PWs)   bands (ev):

   -66.7236 -66.7236 -42.5001 -42.5001 -40.0612 -40.0612 -39.9473 -39.9473
   -19.6560 -19.6560 -18.5848 -18.5848 -11.1499 -11.1499  -9.2700  -9.2700
    -8.8436  -8.8436  -8.1043  -8.1043  -7.9392  -7.9392  -7.0028  -7.0028
    -6.2254  -6.2254  -3.6081  -3.6081  -3.3013  -3.3013

          k = 0.8343 0.5779 0.0000 (  3970 PWs)   bands (ev):

   -66.7259 -66.7259 -42.4943 -42.4931 -40.0567 -40.0558 -39.9364 -39.9339
   -19.7519 -19.7498 -18.6238 -18.6236 -11.2371 -11.2344  -9.1198  -9.1082
    -8.6290  -8.6285  -8.2190  -8.1936  -7.9385  -7.9321  -6.9095  -6.8842
    -6.1408  -6.1358  -3.5123  -3.4992  -3.4066  -3.3531

          k = 0.8343 0.8666 0.0000 (  4006 PWs)   bands (ev):

   -66.7085 -66.7085 -42.5469 -42.5390 -40.1097 -40.1060 -40.0141 -40.0066
   -18.9855 -18.9694 -18.3052 -18.3040 -10.8770 -10.8538  -9.7428  -9.7333
    -9.6181  -9.5882  -9.1331  -9.1044  -7.9062  -7.8306  -6.9867  -6.9517
    -6.7440  -6.6718  -4.0161  -3.9465  -3.4224  -3.4048

          k = 0.8343 0.9628 0.0000 (  4002 PWs)   bands (ev):

   -66.6998 -66.6998 -42.5747 -42.5622 -40.1552 -40.1413 -40.0328 -40.0290
   -18.5453 -18.5169 -18.1206 -18.1186 -11.0657 -11.0533 -10.3138 -10.2979
    -9.6501  -9.6399  -9.2376  -9.2172  -8.1817  -8.1092  -7.2886  -7.2672
    -6.7049  -6.6085  -3.8654  -3.7971  -3.3141  -3.3107

          k = 0.8343 1.0591 0.0000 (  4030 PWs)   bands (ev):

   -66.6935 -66.6935 -42.5954 -42.5794 -40.1928 -40.1705 -40.0411 -40.0409
   -18.1866 -18.1468 -17.9709 -17.9683 -11.2682 -11.2562 -10.8442 -10.8345
    -9.7621  -9.7581  -9.1522  -9.1344  -8.2957  -8.2309  -7.6565  -7.6457
    -6.4598  -6.3511  -3.6882  -3.6613  -3.1376  -3.0219

          k = 0.8343 1.1553 0.0000 (  4050 PWs)   bands (ev):

   -66.6912 -66.6912 -42.6029 -42.5857 -40.2069 -40.1817 -40.0445 -40.0435
   -18.0463 -18.0017 -17.9128 -17.9101 -11.3490 -11.3231 -11.0353 -11.0277
    -9.8907  -9.8777  -9.0800  -9.0614  -8.2888  -8.2267  -7.8311  -7.8254
    -6.2872  -6.1713  -3.7596  -3.7112  -2.9183  -2.7686

          k = 0.8343 1.2515 0.0000 (  4030 PWs)   bands (ev):

   -66.6935 -66.6935 -42.5952 -42.5792 -40.1924 -40.1703 -40.0411 -40.0408
   -18.1899 -18.1502 -17.9722 -17.9696 -11.2662 -11.2546 -10.8397 -10.8299
    -9.7596  -9.7558  -9.1535  -9.1358  -8.2956  -8.2308  -7.6527  -7.6418
    -6.4631  -6.3546  -3.6875  -3.6614  -3.1414  -3.0267

          k = 0.8343 1.3477 0.0000 (  4002 PWs)   bands (ev):

   -66.6999 -66.6999 -42.5744 -42.5619 -40.1546 -40.1408 -40.0327 -40.0288
   -18.5504 -18.5222 -18.1228 -18.1207 -11.0630 -11.0503 -10.3059 -10.2898
    -9.6506  -9.6402  -9.2379  -9.2175  -8.1787  -8.1061  -7.2841  -7.2625
    -6.7069  -6.6107  -3.8690  -3.8001  -3.3150  -3.3125

          k = 0.9177 0.5298 0.0000 (  3957 PWs)   bands (ev):

   -66.7308 -66.7308 -42.4802 -42.4802 -40.0489 -40.0489 -39.9048 -39.9048
   -19.9500 -19.9500 -18.7058 -18.7058 -11.4482 -11.4482  -8.7424  -8.7424
    -8.4052  -8.4052  -8.1925  -8.1925  -7.5519  -7.5519  -7.0849  -7.0849
    -6.0019  -6.0019  -3.2474  -3.2474  -3.1495  -3.1495

          k = 0.9177 0.7223 0.0000 (  3968 PWs)   bands (ev):

   -66.7258 -66.7258 -42.4945 -42.4933 -40.0568 -40.0560 -39.9369 -39.9343
   -19.7484 -19.7463 -18.6224 -18.6222 -11.2336 -11.2309  -9.1256  -9.1140
    -8.6350  -8.6344  -8.2158  -8.1902  -7.9449  -7.9387  -6.9080  -6.8825
    -6.1437  -6.1386  -3.5167  -3.5039  -3.4079  -3.3545

          k = 0.9177 0.8185 0.0000 (  3989 PWs)   bands (ev):

   -66.7171 -66.7171 -42.5198 -42.5166 -40.0781 -40.0772 -39.9812 -39.9756
   -19.3811 -19.3749 -18.4706 -18.4701 -10.9487 -10.9388  -9.5990  -9.5952
    -9.1886  -9.1789  -8.4987  -8.4942  -7.9067  -7.8675  -6.9482  -6.9192
    -6.4930  -6.4675  -3.8240  -3.7972  -3.4323  -3.4228

          k = 0.9177 0.9147 0.0000 (  4006 PWs)   bands (ev):

   -66.7071 -66.7071 -42.5502 -42.5445 -40.1227 -40.1192 -40.0086 -40.0038
   -18.9143 -18.9024 -18.2793 -18.2784 -10.9801 -10.9670  -9.8492  -9.8387
    -9.7742  -9.7683  -8.8711  -8.8618  -7.6760  -7.6100  -7.2467  -7.2232
    -6.8039  -6.7381  -3.8982  -3.8365  -3.4813  -3.4549

          k = 0.9177 1.0109 0.0000 (  4017 PWs)   bands (ev):

   -66.6985 -66.6985 -42.5775 -42.5697 -40.1735 -40.1650 -40.0184 -40.0158
   -18.4579 -18.4396 -18.0963 -18.0950 -11.3243 -11.3241 -10.4377 -10.4303
    -9.8151  -9.8150  -9.0414  -9.0323  -7.6054  -7.5844  -7.5181  -7.4796
    -6.7004  -6.6103  -3.7406  -3.7051  -3.3512  -3.3404

          k = 0.9177 1.1072 0.0000 (  4025 PWs)   bands (ev):

   -66.6935 -66.6935 -42.5937 -42.5845 -40.2045 -40.1932 -40.0214 -40.0199
   -18.1639 -18.1408 -17.9818 -17.9804 -11.5958 -11.5843 -10.7819 -10.7765
    -9.9501  -9.9424  -9.0971  -9.0882  -7.7853  -7.7807  -7.4207  -7.3498
    -6.4632  -6.3624  -3.6431  -3.6041  -3.1667  -3.0718

          k = 0.9177 1.2034 0.0000 (  4025 PWs)   bands (ev):

   -66.6935 -66.6935 -42.5936 -42.5844 -40.2043 -40.1930 -40.0214 -40.0199
   -18.1659 -18.1428 -17.9826 -17.9811 -11.5940 -11.5825 -10.7798 -10.7743
    -9.9490  -9.9413  -9.0968  -9.0879  -7.7840  -7.7794  -7.4216  -7.3508
    -6.4652  -6.3645  -3.6432  -3.6047  -3.1687  -3.0744

          k = 0.9177 1.2996 0.0000 (  4017 PWs)   bands (ev):

   -66.6986 -66.6986 -42.5773 -42.5694 -40.1730 -40.1645 -40.0183 -40.0157
   -18.4628 -18.4445 -18.0982 -18.0969 -11.3202 -11.3197 -10.4317 -10.4243
    -9.8136  -9.8136  -9.0401  -9.0310  -7.6042  -7.5812  -7.5175  -7.4811
    -6.7032  -6.6133  -3.7431  -3.7067  -3.3530  -3.3432

          k = 0.9177 1.3958 0.0000 (  4006 PWs)   bands (ev):

   -66.7072 -66.7072 -42.5499 -42.5442 -40.1221 -40.1187 -40.0084 -40.0036
   -18.9201 -18.9083 -18.2817 -18.2808 -10.9770 -10.9638  -9.8418  -9.8313
    -9.7736  -9.7676  -8.8680  -8.8588  -7.6775  -7.6119  -7.2425  -7.2190
    -6.8026  -6.7373  -3.8989  -3.8374  -3.4819  -3.4555

          k = 0.9177 1.4921 0.0000 (  3991 PWs)   bands (ev):

   -66.7172 -66.7172 -42.5195 -42.5163 -40.0777 -40.0768 -39.9807 -39.9751
   -19.3863 -19.3801 -18.4727 -18.4722 -10.9512 -10.9414  -9.5943  -9.5905
    -9.1812  -9.1716  -8.4927  -8.4883  -7.9104  -7.8715  -6.9458  -6.9168
    -6.4880  -6.4629  -3.8214  -3.7953  -3.4306  -3.4213

     Writing output data file MoS2.save/
 
     init_run     :      0.07s CPU      0.12s WALL (       1 calls)
     electrons    :      4.89s CPU      5.09s WALL (       1 calls)

     Called by init_run:
     wfcinit      :      0.00s CPU      0.00s WALL (       1 calls)
     potinit      :      0.04s CPU      0.08s WALL (       1 calls)
     hinit0       :      0.01s CPU      0.03s WALL (       1 calls)

     Called by electrons:
     c_bands      :      4.89s CPU      5.09s WALL (       1 calls)
     v_of_rho     :      0.00s CPU      0.00s WALL (       1 calls)

     Called by c_bands:
     init_us_2    :      0.00s CPU      0.00s WALL (       8 calls)
     cegterg      :      3.51s CPU      3.67s WALL (      20 calls)

     Called by sum_band:

     Called by *egterg:
     h_psi        :      1.99s CPU      2.12s WALL (     376 calls)
     g_psi        :      0.01s CPU      0.01s WALL (     348 calls)
     cdiaghg      :      1.22s CPU      1.26s WALL (     356 calls)

     Called by h_psi:
     h_psi:pot    :      1.99s CPU      2.12s WALL (     376 calls)
     h_psi:calbec :      0.06s CPU      0.07s WALL (     376 calls)
     vloc_psi     :      1.85s CPU      1.97s WALL (     376 calls)
     add_vuspsi   :      0.07s CPU      0.07s WALL (     376 calls)

     General routines
     calbec       :      0.06s CPU      0.07s WALL (     376 calls)
     fft          :      0.00s CPU      0.01s WALL (      13 calls)
     fftw         :      1.74s CPU      1.85s WALL (   23712 calls)
 
     Parallel routines
     fft_scatt_xy :      0.16s CPU      0.17s WALL (   23725 calls)
     fft_scatt_yz :      1.08s CPU      1.15s WALL (   23725 calls)
 
     PWSCF        :     12.63s CPU     59.47s WALL

 
   This run was terminated on:  12:56:52   3May2021            

=------------------------------------------------------------------------------=
   JOB DONE.
=------------------------------------------------------------------------------=
